<?xml version="1.0"?>
<VTKFile type="UnstructuredGrid"  version="0.1"  >
<UnstructuredGrid>
<Piece  NumberOfPoints="1617" NumberOfCells="1536">
<Points>
<DataArray  type="Float64"  NumberOfComponents="3"  format="ascii">0 0 0  0.00125 0 0  0.0025 0 0  0.00375 0 0  0.005 0 0  0.006249999999999999 0 0  0.0075 0 0  0.008749999999999999 0 0  0.01 0 0  0.01125 0 0  0.0125 0 0  0.01375 0 0  0.015 0 0  0.01625 0 0  0.0175 0 0  0.01875 0 0  0.02 0 0  0.02125 0 0  0.0225 0 0  0.02375 0 0  0.025 0 0  0.02625 0 0  0.0275 0 0  0.02875 0 0  0.03 0 0  0.03125 0 0  0.0325 0 0  0.03375 0 0  0.035 0 0  0.03625 0 0  0.0375 0 0  0.03875 0 0  0.04 0 0  0.04125 0 0  0.0425 0 0  0.04375 0 0  0.04500000000000001 0 0  0.04624999999999999 0 0  0.04749999999999999 0 0  0.04874999999999999 0 0  0.05 0 0  0.05125 0 0  0.0525 0 0  0.05375 0 0  0.05499999999999999 0 0  0.05624999999999999 0 0  0.0575 0 0  0.05875 0 0  0.06 0 0  0 0.00125 0  0.00125 0.00125 0  0.0025 0.00125 0  0.00375 0.00125 0  0.005 0.00125 0  0.006249999999999999 0.00125 0  0.0075 0.00125 0  0.008749999999999999 0.00125 0  0.01 0.00125 0  0.01125 0.00125 0  0.0125 0.00125 0  0.01375 0.00125 0  0.015 0.00125 0  0.01625 0.00125 0  0.0175 0.00125 0  0.01875 0.00125 0  0.02 0.00125 0  0.02125 0.00125 0  0.0225 0.00125 0  0.02375 0.00125 0  0.025 0.00125 0  0.02625 0.00125 0  0.0275 0.00125 0  0.02875 0.00125 0  0.03 0.00125 0  0.03125 0.00125 0  0.0325 0.00125 0  0.03375 0.00125 0  0.035 0.00125 0  0.03625 0.00125 0  0.0375 0.00125 0  0.03875 0.00125 0  0.04 0.00125 0  0.04125 0.00125 0  0.0425 0.00125 0  0.04375 0.00125 0  0.04500000000000001 0.00125 0  0.04624999999999999 0.00125 0  0.04749999999999999 0.00125 0  0.04874999999999999 0.00125 0  0.05 0.00125 0  0.05125 0.00125 0  0.0525 0.00125 0  0.05375 0.00125 0  0.05499999999999999 0.00125 0  0.05624999999999999 0.00125 0  0.0575 0.00125 0  0.05875 0.00125 0  0.06 0.00125 0  0 0.0025 0  0.00125 0.0025 0  0.0025 0.0025 0  0.00375 0.0025 0  0.005 0.0025 0  0.006249999999999999 0.0025 0  0.0075 0.0025 0  0.008749999999999999 0.0025 0  0.01 0.0025 0  0.01125 0.0025 0  0.0125 0.0025 0  0.01375 0.0025 0  0.015 0.0025 0  0.01625 0.0025 0  0.0175 0.0025 0  0.01875 0.0025 0  0.02 0.0025 0  0.02125 0.0025 0  0.0225 0.0025 0  0.02375 0.0025 0  0.025 0.0025 0  0.02625 0.0025 0  0.0275 0.0025 0  0.02875 0.0025 0  0.03 0.0025 0  0.03125 0.0025 0  0.0325 0.0025 0  0.03375 0.0025 0  0.035 0.0025 0  0.03625 0.0025 0  0.0375 0.0025 0  0.03875 0.0025 0  0.04 0.0025 0  0.04125 0.0025 0  0.0425 0.0025 0  0.04375 0.0025 0  0.04500000000000001 0.0025 0  0.04624999999999999 0.0025 0  0.04749999999999999 0.0025 0  0.04874999999999999 0.0025 0  0.05 0.0025 0  0.05125 0.0025 0  0.0525 0.0025 0  0.05375 0.0025 0  0.05499999999999999 0.0025 0  0.05624999999999999 0.0025 0  0.0575 0.0025 0  0.05875 0.0025 0  0.06 0.0025 0  0 0.00375 0  0.00125 0.00375 0  0.0025 0.00375 0  0.00375 0.00375 0  0.005 0.00375 0  0.006249999999999999 0.00375 0  0.0075 0.00375 0  0.008749999999999999 0.00375 0  0.01 0.00375 0  0.01125 0.00375 0  0.0125 0.00375 0  0.01375 0.00375 0  0.015 0.00375 0  0.01625 0.00375 0  0.0175 0.00375 0  0.01875 0.00375 0  0.02 0.00375 0  0.02125 0.00375 0  0.0225 0.00375 0  0.02375 0.00375 0  0.025 0.00375 0  0.02625 0.00375 0  0.0275 0.00375 0  0.02875 0.00375 0  0.03 0.00375 0  0.03125 0.00375 0  0.0325 0.00375 0  0.03375 0.00375 0  0.035 0.00375 0  0.03625 0.00375 0  0.0375 0.00375 0  0.03875 0.00375 0  0.04 0.00375 0  0.04125 0.00375 0  0.0425 0.00375 0  0.04375 0.00375 0  0.04500000000000001 0.00375 0  0.04624999999999999 0.00375 0  0.04749999999999999 0.00375 0  0.04874999999999999 0.00375 0  0.05 0.00375 0  0.05125 0.00375 0  0.0525 0.00375 0  0.05375 0.00375 0  0.05499999999999999 0.00375 0  0.05624999999999999 0.00375 0  0.0575 0.00375 0  0.05875 0.00375 0  0.06 0.00375 0  0 0.005 0  0.00125 0.005 0  0.0025 0.005 0  0.00375 0.005 0  0.005 0.005 0  0.006249999999999999 0.005 0  0.0075 0.005 0  0.008749999999999999 0.005 0  0.01 0.005 0  0.01125 0.005 0  0.0125 0.005 0  0.01375 0.005 0  0.015 0.005 0  0.01625 0.005 0  0.0175 0.005 0  0.01875 0.005 0  0.02 0.005 0  0.02125 0.005 0  0.0225 0.005 0  0.02375 0.005 0  0.025 0.005 0  0.02625 0.005 0  0.0275 0.005 0  0.02875 0.005 0  0.03 0.005 0  0.03125 0.005 0  0.0325 0.005 0  0.03375 0.005 0  0.035 0.005 0  0.03625 0.005 0  0.0375 0.005 0  0.03875 0.005 0  0.04 0.005 0  0.04125 0.005 0  0.0425 0.005 0  0.04375 0.005 0  0.04500000000000001 0.005 0  0.04624999999999999 0.005 0  0.04749999999999999 0.005 0  0.04874999999999999 0.005 0  0.05 0.005 0  0.05125 0.005 0  0.0525 0.005 0  0.05375 0.005 0  0.05499999999999999 0.005 0  0.05624999999999999 0.005 0  0.0575 0.005 0  0.05875 0.005 0  0.06 0.005 0  0 0.00625 0  0.00125 0.00625 0  0.0025 0.00625 0  0.00375 0.00625 0  0.005 0.00625 0  0.006249999999999999 0.00625 0  0.0075 0.00625 0  0.008749999999999999 0.00625 0  0.01 0.00625 0  0.01125 0.00625 0  0.0125 0.00625 0  0.01375 0.00625 0  0.015 0.00625 0  0.01625 0.00625 0  0.0175 0.00625 0  0.01875 0.00625 0  0.02 0.00625 0  0.02125 0.00625 0  0.0225 0.00625 0  0.02375 0.00625 0  0.025 0.00625 0  0.02625 0.00625 0  0.0275 0.00625 0  0.02875 0.00625 0  0.03 0.00625 0  0.03125 0.00625 0  0.0325 0.00625 0  0.03375 0.00625 0  0.035 0.00625 0  0.03625 0.00625 0  0.0375 0.00625 0  0.03875 0.00625 0  0.04 0.00625 0  0.04125 0.00625 0  0.0425 0.00625 0  0.04375 0.00625 0  0.04500000000000001 0.00625 0  0.04624999999999999 0.00625 0  0.04749999999999999 0.00625 0  0.04874999999999999 0.00625 0  0.05 0.00625 0  0.05125 0.00625 0  0.0525 0.00625 0  0.05375 0.00625 0  0.05499999999999999 0.00625 0  0.05624999999999999 0.00625 0  0.0575 0.00625 0  0.05875 0.00625 0  0.06 0.00625 0  0 0.0075 0  0.00125 0.0075 0  0.0025 0.0075 0  0.00375 0.0075 0  0.005 0.0075 0  0.006249999999999999 0.0075 0  0.0075 0.0075 0  0.008749999999999999 0.0075 0  0.01 0.0075 0  0.01125 0.0075 0  0.0125 0.0075 0  0.01375 0.0075 0  0.015 0.0075 0  0.01625 0.0075 0  0.0175 0.0075 0  0.01875 0.0075 0  0.02 0.0075 0  0.02125 0.0075 0  0.0225 0.0075 0  0.02375 0.0075 0  0.025 0.0075 0  0.02625 0.0075 0  0.0275 0.0075 0  0.02875 0.0075 0  0.03 0.0075 0  0.03125 0.0075 0  0.0325 0.0075 0  0.03375 0.0075 0  0.035 0.0075 0  0.03625 0.0075 0  0.0375 0.0075 0  0.03875 0.0075 0  0.04 0.0075 0  0.04125 0.0075 0  0.0425 0.0075 0  0.04375 0.0075 0  0.04500000000000001 0.0075 0  0.04624999999999999 0.0075 0  0.04749999999999999 0.0075 0  0.04874999999999999 0.0075 0  0.05 0.0075 0  0.05125 0.0075 0  0.0525 0.0075 0  0.05375 0.0075 0  0.05499999999999999 0.0075 0  0.05624999999999999 0.0075 0  0.0575 0.0075 0  0.05875 0.0075 0  0.06 0.0075 0  0 0.008750000000000001 0  0.00125 0.008750000000000001 0  0.0025 0.008750000000000001 0  0.00375 0.008750000000000001 0  0.005 0.008750000000000001 0  0.006249999999999999 0.008750000000000001 0  0.0075 0.008750000000000001 0  0.008749999999999999 0.008750000000000001 0  0.01 0.008750000000000001 0  0.01125 0.008750000000000001 0  0.0125 0.008750000000000001 0  0.01375 0.008750000000000001 0  0.015 0.008750000000000001 0  0.01625 0.008750000000000001 0  0.0175 0.008750000000000001 0  0.01875 0.008750000000000001 0  0.02 0.008750000000000001 0  0.02125 0.008750000000000001 0  0.0225 0.008750000000000001 0  0.02375 0.008750000000000001 0  0.025 0.008750000000000001 0  0.02625 0.008750000000000001 0  0.0275 0.008750000000000001 0  0.02875 0.008750000000000001 0  0.03 0.008750000000000001 0  0.03125 0.008750000000000001 0  0.0325 0.008750000000000001 0  0.03375 0.008750000000000001 0  0.035 0.008750000000000001 0  0.03625 0.008750000000000001 0  0.0375 0.008750000000000001 0  0.03875 0.008750000000000001 0  0.04 0.008750000000000001 0  0.04125 0.008750000000000001 0  0.0425 0.008750000000000001 0  0.04375 0.008750000000000001 0  0.04500000000000001 0.008750000000000001 0  0.04624999999999999 0.008750000000000001 0  0.04749999999999999 0.008750000000000001 0  0.04874999999999999 0.008750000000000001 0  0.05 0.008750000000000001 0  0.05125 0.008750000000000001 0  0.0525 0.008750000000000001 0  0.05375 0.008750000000000001 0  0.05499999999999999 0.008750000000000001 0  0.05624999999999999 0.008750000000000001 0  0.0575 0.008750000000000001 0  0.05875 0.008750000000000001 0  0.06 0.008750000000000001 0  0 0.01 0  0.00125 0.01 0  0.0025 0.01 0  0.00375 0.01 0  0.005 0.01 0  0.006249999999999999 0.01 0  0.0075 0.01 0  0.008749999999999999 0.01 0  0.01 0.01 0  0.01125 0.01 0  0.0125 0.01 0  0.01375 0.01 0  0.015 0.01 0  0.01625 0.01 0  0.0175 0.01 0  0.01875 0.01 0  0.02 0.01 0  0.02125 0.01 0  0.0225 0.01 0  0.02375 0.01 0  0.025 0.01 0  0.02625 0.01 0  0.0275 0.01 0  0.02875 0.01 0  0.03 0.01 0  0.03125 0.01 0  0.0325 0.01 0  0.03375 0.01 0  0.035 0.01 0  0.03625 0.01 0  0.0375 0.01 0  0.03875 0.01 0  0.04 0.01 0  0.04125 0.01 0  0.0425 0.01 0  0.04375 0.01 0  0.04500000000000001 0.01 0  0.04624999999999999 0.01 0  0.04749999999999999 0.01 0  0.04874999999999999 0.01 0  0.05 0.01 0  0.05125 0.01 0  0.0525 0.01 0  0.05375 0.01 0  0.05499999999999999 0.01 0  0.05624999999999999 0.01 0  0.0575 0.01 0  0.05875 0.01 0  0.06 0.01 0  0 0.01125 0  0.00125 0.01125 0  0.0025 0.01125 0  0.00375 0.01125 0  0.005 0.01125 0  0.006249999999999999 0.01125 0  0.0075 0.01125 0  0.008749999999999999 0.01125 0  0.01 0.01125 0  0.01125 0.01125 0  0.0125 0.01125 0  0.01375 0.01125 0  0.015 0.01125 0  0.01625 0.01125 0  0.0175 0.01125 0  0.01875 0.01125 0  0.02 0.01125 0  0.02125 0.01125 0  0.0225 0.01125 0  0.02375 0.01125 0  0.025 0.01125 0  0.02625 0.01125 0  0.0275 0.01125 0  0.02875 0.01125 0  0.03 0.01125 0  0.03125 0.01125 0  0.0325 0.01125 0  0.03375 0.01125 0  0.035 0.01125 0  0.03625 0.01125 0  0.0375 0.01125 0  0.03875 0.01125 0  0.04 0.01125 0  0.04125 0.01125 0  0.0425 0.01125 0  0.04375 0.01125 0  0.04500000000000001 0.01125 0  0.04624999999999999 0.01125 0  0.04749999999999999 0.01125 0  0.04874999999999999 0.01125 0  0.05 0.01125 0  0.05125 0.01125 0  0.0525 0.01125 0  0.05375 0.01125 0  0.05499999999999999 0.01125 0  0.05
[...]
<PointData  Vectors="displacements"> 
<DataArray  type="Float64"  Name="displacements"  NumberOfComponents="3" format="ascii">0.0000000000000000e+00 0.0000000000000000e+00 0.0000000000000000e+00  -1.3336471040132963e-03 -1.4037976711946476e-03 0.0000000000000000e+00  -2.2267829788205785e-03 -2.5328707897457679e-03 0.0000000000000000e+00  -2.8707065311520019e-03 -3.7016450175863026e-03 0.0000000000000000e+00  -3.3547392142370507e-03 -4.8775365889250598e-03 0.0000000000000000e+00  -3.7114560911040602e-03 -6.0643784104657842e-03 0.0000000000000000e+00  -3.9615548801543079e-03 -7.2576893454640778e-03 0.0000000000000000e+00  -4.1188904004612458e-03 -8.4552045692474955e-03 0.0000000000000000e+00  -4.1937756635906454e-03 -9.6562267183104723e-03 0.0000000000000000e+00  -4.1943520009471080e-03 -1.0862347818217830e-02 0.0000000000000000e+00  -4.1275791235340694e-03 -1.2078347725926922e-02 0.0000000000000000e+00  -3.9997901205043604e-03 -1.3314375066698763e-02 0.0000000000000000e+00  -3.8154106223039384e-03 -1.4589635324703025e-02 0.0000000000000000e+00  -3.5719367374116876e-03 -1.5935253197714619e-02 0.0000000000000000e+00  -3.2504532703100169e-03 -1.7396436438592768e-02 0.0000000000000000e+00  -2.7873047107987480e-03 -1.8996510086385313e-02 0.0000000000000000e+00  -2.1097772251663905e-03 -2.0617339912055478e-02 0.0000000000000000e+00  -1.3414543586988826e-03 -2.2154217530850770e-02 0.0000000000000000e+00  -3.7923343473664027e-04 -2.3513993283984215e-02 0.0000000000000000e+00  -3.2621905111684051e-04 -2.4688846290955781e-02 0.0000000000000000e+00  -1.9711007549186860e-04 -2.5813910519552483e-02 0.0000000000000000e+00  -1.0536520539397459e-04 -2.6803221901068017e-02 0.0000000000000000e+00  2.4036289255605068e-04 -2.8114595489613568e-02 0.0000000000000000e+00  5.2525816879367047e-04 -2.9882893191473976e-02 0.0000000000000000e+00  1.2086087958770393e-03 -3.1219392309762724e-02 0.0000000000000000e+00  1.9057570554543667e-03 -3.0317594951064609e-02 0.0000000000000000e+00  2.2464058784696147e-03 -2.8929657869949690e-02 0.0000000000000000e+00  2.3499804773420797e-03 -2.8271175542620548e-02 0.0000000000000000e+00  2.8240589439855416e-03 -2.6955314104840287e-02 0.0000000000000000e+00  3.0636607920383088e-03 -2.6077418722269936e-02 0.0000000000000000e+00  3.0929282345502291e-03 -2.5558335753531322e-02 0.0000000000000000e+00  4.1817310017865763e-03 -2.4451011443225149e-02 0.0000000000000000e+00  4.9420479807237086e-03 -2.3119910030926484e-02 0.0000000000000000e+00  5.5775154548911091e-03 -2.1865501694348033e-02 0.0000000000000000e+00  6.0802602421919779e-03 -2.0613223104644255e-02 0.0000000000000000e+00  6.4529120141404031e-03 -1.9360073393531151e-02 0.0000000000000000e+00  6.7122501230630332e-03 -1.8114308089399667e-02 0.0000000000000000e+00  6.8742316358334412e-03 -1.6871448756362262e-02 0.0000000000000000e+00  6.9498500086093767e-03 -1.5616565540601101e-02 0.0000000000000000e+00  6.9392671478503195e-03 -1.4332498730255015e-02 0.0000000000000000e+00  6.8366541855537123e-03 -1.3007124361577169e-02 0.0000000000000000e+00  6.6327227441404703e-03 -1.1633472006647735e-02 0.0000000000000000e+00  6.3162288293768451e-03 -1.0208087925675487e-02 0.0000000000000000e+00  5.8725816345646829e-03 -8.7291030152183875e-03 0.0000000000000000e+00  5.2812634184668293e-03 -7.1947099676071538e-03 0.0000000000000000e+00  4.5095471397590065e-03 -5.6038994467244559e-03 0.0000000000000000e+00  3.5028155834331116e-03 -3.9396169033878280e-03 0.0000000000000000e+00  2.1093886003873338e-03 -2.2408134805567905e-03 0.0000000000000000e+00  0.0000000000000000e+00 0.0000000000000000e+00 0.0000000000000000e+00  0.0000000000000000e+00 0.0000000000000000e+00 0.0000000000000000e+00  -6.3124898164759096e-04 -1.0214436261322475e-03 0.0000000000000000e+00  -1.3247069851282690e-03 -2.2605782942641999e-03 0.0000000000000000e+00  -1.8855358991470006e-03 -3.4822293086339824e-03 0.0000000000000000e+00  -2.3212502843172559e-03 -4.7117472907204317e-03 0.0000000000000000e+00  -2.6472748126067356e-03 -5.9436913932873429e-03 0.0000000000000000e+00  -2.8766694475142519e-03 -7.1770127001891297e-03 0.0000000000000000e+00  -3.0190591979492574e-03 -8.4105004086240838e-03 0.0000000000000000e+00  -3.0813045388331010e-03 -9.6445438017230475e-03 0.0000000000000000e+00  -3.0679749296519863e-03 -1.0881467079344872e-02 0.0000000000000000e+00  -2.9816122695546098e-03 -1.2126569722049249e-02 0.0000000000000000e+00  -2.8226178520620272e-03 -1.3390203405269108e-02 0.0000000000000000e+00  -2.5893863527181441e-03 -1.4691932161806904e-02 0.0000000000000000e+00  -2.2765528585529538e-03 -1.6066091275302046e-02 0.0000000000000000e+00  -1.8736613389556335e-03 -1.7558791552812453e-02 0.0000000000000000e+00  -1.3766368766994102e-03 -1.9220833422249239e-02 0.0000000000000000e+00  -7.2036287524260029e-04 -2.0994146510898384e-02 0.0000000000000000e+00  1.9527289915156676e-04 -2.2531944607881462e-02 0.0000000000000000e+00  3.4724037188985736e-04 -2.3426075727849376e-02 0.0000000000000000e+00  5.7772956632891369e-04 -2.4708268695836245e-02 0.0000000000000000e+00  6.9484884783298695e-04 -2.5848183158668190e-02 0.0000000000000000e+00  8.0916959764444380e-04 -2.6861404158918682e-02 0.0000000000000000e+00  1.0885553618088289e-03 -2.8148545680429262e-02 0.0000000000000000e+00  1.3318716789774644e-03 -2.9595749148265644e-02 0.0000000000000000e+00  1.4160377605421360e-03 -3.0506634939381612e-02 0.0000000000000000e+00  1.4947425549072071e-03 -3.0030098510998731e-02 0.0000000000000000e+00  1.7097400250377264e-03 -2.8984216962962758e-02 0.0000000000000000e+00  1.8604113519030516e-03 -2.8305639133272217e-02 0.0000000000000000e+00  2.3443457860635648e-03 -2.7054421846234824e-02 0.0000000000000000e+00  2.6677626404231101e-03 -2.6114937834623982e-02 0.0000000000000000e+00  2.8070322039608340e-03 -2.5504425014982925e-02 0.0000000000000000e+00  2.9694548776989698e-03 -2.4857616072487203e-02 0.0000000000000000e+00  3.8575959952202475e-03 -2.3422382943182808e-02 0.0000000000000000e+00  4.4959410628338551e-03 -2.2105876478385474e-02 0.0000000000000000e+00  4.9809348440585351e-03 -2.0794148687981590e-02 0.0000000000000000e+00  5.3413254620242288e-03 -1.9488197560733892e-02 0.0000000000000000e+00  5.5878591479437342e-03 -1.8197897022250092e-02 0.0000000000000000e+00  5.7359828748942002e-03 -1.6917584568502852e-02 0.0000000000000000e+00  5.7899259255818920e-03 -1.5625952659481107e-02 0.0000000000000000e+00  5.7498779140656431e-03 -1.4303204782136709e-02 0.0000000000000000e+00  5.6116117199222085e-03 -1.2935931668008136e-02 0.0000000000000000e+00  5.3698241033485880e-03 -1.1516996218902007e-02 0.0000000000000000e+00  5.0169465378912693e-03 -1.0042078659539736e-02 0.0000000000000000e+00  4.5423210600602426e-03 -8.5077280113131024e-03 0.0000000000000000e+00  3.9306286442142499e-03 -6.9102321890438948e-03 0.0000000000000000e+00  3.1602061596433628e-03 -5.2425586761643776e-03 0.0000000000000000e+00  2.2042266054290004e-03 -3.5015750802539192e-03 0.0000000000000000e+00  1.0477040971561917e-03 -1.6328348905023096e-03 0.0000000000000000e+00  0.0000000000000000e+00 0.0000000000000000e+00 0.0000000000000000e+00  0.0000000000000000e+00 0.0000000000000000e+00 0.0000000000000000e+00  -4.0854024584700539e-04 -9.3154329452216063e-04 0.0000000000000000e+00  -8.2255084689560802e-04 -2.0883479501809981e-03 0.0000000000000000e+00  -1.2236956398800022e-03 -3.3284257151046876e-03 0.0000000000000000e+00  -1.5596338078190494e-03 -4.5861686384446737e-03 0.0000000000000000e+00  -1.8200073240122305e-03 -5.8506272740847997e-03 0.0000000000000000e+00  -2.0041938187401543e-03 -7.1158411210998839e-03 0.0000000000000000e+00  -2.1143082082367829e-03 -8.3802158257625346e-03 0.0000000000000000e+00  -2.1521404256651792e-03 -9.6443911791257008e-03 0.0000000000000000e+00  -2.1181580156243332e-03 -1.0911255960287955e-02 0.0000000000000000e+00  -2.0109862542745799e-03 -1.2186367977340328e-02 0.0000000000000000e+00  -1.8277511124368362e-03 -1.3479654897840051e-02 0.0000000000000000e+00  -1.5644748872818920e-03 -1.4807483286118662e-02 0.0000000000000000e+00  -1.2214405074067749e-03 -1.6200101975339231e-02 0.0000000000000000e+00  -7.9479829471606654e-04 -1.7711976535081147e-02 0.0000000000000000e+00  -2.5371101317517319e-04 -1.9393230254646440e-02 0.0000000000000000e+00  5.1138071706925182e-04 -2.1508151430855119e-02 0.0000000000000000e+00  5.7408233991294670e-04 -2.2394708488453645e-02 0.0000000000000000e+00  5.9667844006728427e-04 -2.3310038562357367e-02 0.0000000000000000e+00  8.5785571078003718e-04 -2.4574198555143516e-02 0.0000000000000000e+00  1.1803354111438152e-03 -2.5842655023572168e-02 0.0000000000000000e+00  1.3398564583000988e-03 -2.6820848292880037e-02 0.0000000000000000e+00  1.4744456548774025e-03 -2.8014926920558555e-02 0.0000000000000000e+00  1.5655491881272127e-03 -2.9256947393232913e-02 0.0000000000000000e+00  1.6221976759930785e-03 -3.0130545751674728e-02 0.0000000000000000e+00  1.6834087506281163e-03 -2.9694174818157934e-02 0.0000000000000000e+00  1.7962305470937555e-03 -2.8870570530662262e-02 0.0000000000000000e+00  1.9382805595670345e-03 -2.8189546742283758e-02 0.0000000000000000e+00  2.2809480547963177e-03 -2.7065549566931333e-02 0.0000000000000000e+00  2.6346259450580165e-03 -2.6111004842178209e-02 0.0000000000000000e+00  2.9117036119529261e-03 -2.5386113367160672e-02 0.0000000000000000e+00  3.0678577206373027e-03 -2.4692429508610933e-02 0.0000000000000000e+00  3.2370886135997972e-03 -2.3669582165420127e-02 0.0000000000000000e+00  3.7498744877471836e-03 -2.2312330337940299e-02 0.0000000000000000e+00  4.1831568005744882e-03 -2.0954312132022302e-02 0.0000000000000000e+00  4.4964667442081224e-03 -1.9590569220678367e-02 0.0000000000000000e+00  4.7108746712557215e-03 -1.8263160653575826e-02 0.0000000000000000e+00  4.8304132594069061e-03 -1.6952211990240260e-02 0.0000000000000000e+00  4.8626436607149600e-03 -1.5627920981254356e-02 0.0000000000000000e+00  4.7992442149517589e-03 -1.4266520177409798e-02 0.0000000000000000e+00  4.6380527592897970e-03 -1.2858403939573130e-02 0.0000000000000000e+00  4.3772409471223746e-03 -1.1397471907277948e-02 0.0000000000000000e+00  4.0151617012108070e-03 -9.8797885540352626e-03 0.0000000000000000e+00  3.5488783143895757e-03 -8.3018766187910684e-03 0.0000000000000000e+00  2.9753177121961656e-03 -6.6607670364636079e-03 0.0000000000000000e+00  2.2955243416623700e-03 -4.9572979808122581e-03 0.0000000000000000e+00  1.5260321818646892e-03 -3.1976891285422681e-03 0.0000000000000000e+00  7.5093058484417116e-04 -1.4743400120299569e-03 0.0000000000000000e+00  0.0000000000000000e+00 0.0000000000000000e+00 0.0000000000000000e+00  0.0000000000000000e+00 0.0000000000000000e+00 0.0000000000000000e+00  -2.7218545030790661e-04 -9.2881525247079095e-04 0.0000000000000000e+00  -5.3527891192939000e-04 -2.0411664134247142e-03 0.0000000000000000e+00  -7.8857103055239000e-04 -3.2578733145041988e-03 0.0000000000000000e+00  -1.0148776945715671e-03 -4.5207715502657972e-03 0.0000000000000000e+00  -1.1956808203745031e-03 -5.8003977776595935e-03 0.0000000000000000e+00  -1.3228101176792140e-03 -7.0854943187487023e-03 0.0000000000000000e+00  -1.3925087127824643e-03 -8.3718131494041892e-03 0.0000000000000000e+00  -1.4024432799983157e-03 -9.6594961050141918e-03 0.0000000000000000e+00  -1.3497424490599996e-03 -1.0951291897887809e-02 0.0000000000000000e+00  -1.2309890971615946e-03 -1.2252388479839208e-02 0.0000000000000000e+00  -1.0415761600029497e-03 -1.3570374479492879e-02 0.0000000000000000e+00  -7.7812165482869116e-04 -1.4917909906546111e-02 0.0000000000000000e+00  -4.3600748478205849e-04 -1.6309709263489906e-02 0.0000000000000000e+00  -3.6048778191190447e-05 -1.7798310511298852e-02 0.0000000000000000e+00  4.3938804786397719e-04 -1.9522027260962020e-02 0.0000000000000000e+00  9.2711580006395904e-04 -2.1468605379674432e-02 0.0000000000000000e+00  9.8856256951221268e-04 -2.2197285206557997e-02 0.0000000000000000e+00  1.1171455387092397e-03 -2.3248709089658339e-02 0.0000000000000000e+00  1.2893757275396741e-03 -2.4520989064392481e-02 0.0000000000000000e+00  1.5017228283307645e-03 -2.5725090260700811e-02 0.0000000000000000e+00  1.5853880232087458e-03 -2.6673263822820491e-02 0.0000000000000000e+00  1.7328045429424348e-03 -2.7790626535998817e-02 0.0000000000000000e+00  1.8585596301046684e-03 -2.8995127386033152e-02 0.0000000000000000e+00  1.8147003241164987e-03 -2.9711745533114359e-02 0.0000000000000000e+00  1.7929020444342806e-03 -2.9469619513799009e-02 0.0000000000000000e+00  1.9793769325309189e-03 -2.8701247182285113e-02 0.0000000000000000e+00  2.1941321462755560e-03 -2.7950084827566130e-02 0.0000000000000000e+00  2.4866053451789529e-03 -2.6919845300091703e-02 0.0000000000000000e+00  2.6826085689841024e-03 -2.6036436065041083e-02 0.0000000000000000e+00  2.7869551959651003e-03 -2.5345101623367141e-02 0.0000000000000000e+00  2.8776928119408594e-03 -2.4557658778215332e-02 0.0000000000000000e+00  3.1016304820616347e-03 -2.3488421043105404e-02 0.0000000000000000e+00  3.2596072549528833e-03 -2.2505306346954759e-02 0.0000000000000000e+00  3.6247062416971281e-03 -2.1079579452304584e-02 0.0000000000000000e+00  3.9189051002377576e-03 -1.9652035873499025e-02 0.0000000000000000e+00  4.0784516309679041e-03 -1.8296305539822956e-02 0.0000000000000000e+00  4.1764442448894270e-03 -1.6977182644106584e-02 0.0000000000000000e+00  4.1816063204689986e-03 -1.5623122483181972e-02 0.0000000000000000e+00  4.0941808362732063e-03 -1.4226884880130819e-02 0.0000000000000000e+00  3.9125746264191130e-03 -1.2782200882786908e-02 0.0000000000000000e+00  3.6415863856925465e-03 -1.1287336356534210e-02 0.0000000000000000e+00  3.2850786729521713e-03 -9.7394465329344627e-03 0.0000000000000000e+00  2.8483320542838195e-03 -8.1369536095472744e-03 0.0000000000000000e+00  2.3389358790666796e-03 -6.4812875566749809e-03 0.0000000000000000e+00  1.7715723566502648e-03 -4.7820890748220867e-03 0.0000000000000000e+00  1.1773944290711044e-03 -3.0759162852233373e-03 0.0000000000000000e+00  5.8561567013448214e-04 -1.4439332207809939e-03 0.0000000000000000e+00  0.0000000000000000e+00 0.0000000000000000e+00 0.0000000000000000e+00  0.0000000000000000e+00 0.0000000000000000e+00 0.0000000000000000e+00  -1.8420703040886537e-04 -9.5840576767636785e-04 0.0000000000000000e+00  -3.4643456711114018e-04 -2.0598510791594530e-03 0.0000000000000000e+00  -4.9631359726982102e-04 -3.2594255191466552e-03 0.0000000000000000e+00  -6.2875828377599748e-04 -4.5146069029207130e-03 0.0000000000000000e+00  -7.3421793682515619e-04 -5.7964792987391404e-03 0.0000000000000000e+00  -8.0436596917661985e-04 -7.0892522152243764e-03 0.0000000000000000e+00  -8.3406341279197499e-04 -8.3865700461290792e-03 0.0000000000000000e+00  -8.1932627250690495e-04 -9.6877405569101328e-03 0.0000000000000000e+00  -7.5625359576469509e-04 -1.0995695430378767e-02 0.0000000000000000e+00  -6.3949664522737059e-04 -1.2313451031091426e-02 0.0000000000000000e+00  -4.6780139882069240e-04 -1.3645799524106427e-02 0.0000000000000000e+00  -2.3872907838211528e-04 -1.4996560840336029e-02 0.0000000000000000e+00  4.0322636095478520e-05 -1.6378505538097630e-02 0.0000000000000000e+00  3.9559623225380680e-04 -1.7783387620840172e-02 0.0000000000000000e+00  7.6918891561167380e-04 -1.9449113577222461e-02 0.0000000000000000e+00  1.1395446796187909e-03 -2.1302537406234567e-02 0.0000000000000000e+00  1.1579720116745205e-03 -2.2026621806062848e-02 0.0000000000000000e+00  1.3056309281834287e-03 -2.3017788926311553e-02 0.0000000000000000e+00  1.5292003687977387e-03 -2.4401409641225905e-02 0.0000000000000000e+00  1.5653668501664085e-03 -2.5398520965428849e-02 0.0000000000000000e+00  1.7021719290988785e-03 -2.6523521237693231e-02 0.0000000000000000e+00  1.8377063468197170e-03 -2.7537357833375155e-02 0.0000000000000000e+00  1.9358209968164735e-03 -2.8704882252115090e-02 0.0000000000000000e+00  1.9604826036337241e-03 -2.9339666074686015e-02 0.0000000000000000e+00  2.0054165284319222e-03 -2.9249043392491514e-02 0.0000000000000000e+00  2.1369238894556391e-03 -2.8483076699492293e-02 0.0000000000000000e+00  2.2161716274777211e-03 -2.7751048674599817e-02 0.0000000000000000e+00  2.3357634287582188e-03 -2.6819441659385285e-02 0.0000000000000000e+00  2.4839801495219549e-03 -2.5953858205993646e-02 0.0000000000000000e+00  2.5938476019919735e-03 -2.5285821598446445e-02 0.0000000000000000e+00  2.7449635018007832e-03 -2.4313843706448790e-02 0.0000000000000000e+00  2.8405909573167238e-03 -2.3398353037014114e-02 0.0000000000000000e+00  3.0266973081255937e-03 -2.2334171115813466e-02 0.0000000000000000e+00  3.2988875789349953e-03 -2.1316699511042637e-02 0.0000000000000000e+00  3.5696555807812435e-03 -1.9612067056296149e-02 0.0000000000000000e+00  3.7383658428791241e-03 -1.8318808275223496e-02 0.0000000000000000e+00  3.7854922092279901e-03 -1.6984733014014396e-02 0.0000000000000000e+00  3.7549044228211035e-03 -1.5609311238858779e-02 0.0000000000000000e+00  3.6288432848911390e-03 -1.4180373879746478e-02 0.0000000000000000e+00  3.4219768033983407e-03 -1.2707660374591454e-02 0.0000000000000000e+00  3.1384062122491491e-03 -1.1189522247188345e-02 0.0000000000000000e+00  2.7891700762829245e-03 -9.6270221251142825e-03 0.0000000000000000e+00  2.3840567840189143e-03 -8.0197439936260228e-03 0.0000000000000000e+00  1.9355175078805203e-03 -6.3727117712359714e-03 0.0000000000000000e+00  1.4599717350588365e-03 -4.7025242656904562e-03 0.0000000000000000e+00  9.7542092319067349e-04 -3.0451453542945034e-03 0.0000000000000000e+00  4.9275902959983479e-04 -1.4574418088906947e-03 0.0000000000000000e+00  0.0000000000000000e+00 0.0000000000000000e+00 0.0000000000000000e+00  0.0000000000000000e+00 0.0000000000000000e+00 0.0000000000000000e+00  -1.2292576082350017e-04 -1.0025431869142324e-03 0.0000000000000000e+00  -2.1716508048292250e-04 -2.1141194686045252e-03 0.0000000000000000e+00  -2.9395114310450885e-04 -3.3085022168266721e-03 0.0000000000000000e+00  -3.5544332624091600e-04 -4.5564177394528133e-03 0.0000000000000000e+00  -3.9842014850462404e-04 -5.8337143407344713e-03 0.0000000000000000e+00  -4.1887499629075830e-04 -7.1245085053731989e-03 0.0000000000000000e+00  -4.1400359264785194e-04 -8.4211548598044413e-03 0.0000000000000000e+00  -3.8198433735980966e-04 -9.7235784478049061e-03 0.0000000000000000e+00  -3.1867441734831776e-04 -1.1034778484653146e-02 0.0000000000000000e+00  -2.2097235424931600e-04 -1.2359338615825128e-02 0.0000000000000000e+00  -7.9961451938370627e-05 -1.3689676664876898e-02 0.0000000000000000e+00  8.2245351302797165e-05 -1.5025255939289210e-02 0.0000000000000000e+00  2.5078889262023852e-04 -1.6341472158518496e-02 0.0000000000000000e+00  2.5287009329444453e-04 -1.7593843017537057e-02 0.0000000000000000e+00  5.0007002573570244e-04 -1.9078133617459778e-02 0.0000000000000000e+00  9.7337787634804739e-04 -2.0839012153753719e-02 0.0000000000000000e+00  1.0695685068188212e-03 -2.1782977387570939e-02 0.0000000000000000e+00  1.1572751708787963e-03 -2.2729407210546664e-02 0.0000000000000000e+00  1.4416422994923850e-03 -2.4069235109897991e-02 0.0000000000000000e+00  1.6850178699911427e-03 -2.5163522387817588e-02 0.0000000000000000e+00  1.9939864467574801e-03 -2.6439863600635109e-02 0.0000000000000000e+00  2.1066686034077421e-03 -2.7364143299352127e-02 0.0000000000000000e+00  2.1986515411894702e-03 -2.8502613122195271e-02 0.0000000000000000e+00  2.1359374086442609e-03 -2.9198932835393793e-02 0.0000000000000000e+00  2.0392758826472232e-03 -2.9097716785812716e-02 0.0000000000000000e+00  2.0687575043894200e-03 -2.8299047476908777e-02 0.0000000000000000e+00  2.1319512926295512e-03 -2.7566639127357986e-02 0.0000000000000000e+00  2.3088810404051285e-03 -2.6654001917190952e-02 0.0000000000000000e+00  2.4932010831575286e-03 -2.5836029735941821e-02 0.0000000000000000e+00  2.6260141973414751e-03 -2.5116654521526404e-02 0.0000000000000000e+00  2.8473303291190822e-03 -2.4017819750565678e-02 0.0000000000000000e+00  3.0174683672753652e-03 -2.3117714386853890e-02 0.0000000000000000e+00  3.3502527725974480e-03 -2.2055882164101422e-02 0.000000000