<?xml version="1.0"?>
<VTKFile type="UnstructuredGrid"  version="0.1"  >
<UnstructuredGrid>
<Piece  NumberOfPoints="1617" NumberOfCells="1536">
<Points>
<DataArray  type="Float64"  NumberOfComponents="3"  format="ascii">0 0 0  0.00125 0 0  0.0025 0 0  0.00375 0 0  0.005 0 0  0.006249999999999999 0 0  0.0075 0 0  0.008749999999999999 0 0  0.01 0 0  0.01125 0 0  0.0125 0 0  0.01375 0 0  0.015 0 0  0.01625 0 0  0.0175 0 0  0.01875 0 0  0.02 0 0  0.02125 0 0  0.0225 0 0  0.02375 0 0  0.025 0 0  0.02625 0 0  0.0275 0 0  0.02875 0 0  0.03 0 0  0.03125 0 0  0.0325 0 0  0.03375 0 0  0.035 0 0  0.03625 0 0  0.0375 0 0  0.03875 0 0  0.04 0 0  0.04125 0 0  0.0425 0 0  0.04375 0 0  0.04500000000000001 0 0  0.04624999999999999 0 0  0.04749999999999999 0 0  0.04874999999999999 0 0  0.05 0 0  0.05125 0 0  0.0525 0 0  0.05375 0 0  0.05499999999999999 0 0  0.05624999999999999 0 0  0.0575 0 0  0.05875 0 0  0.06 0 0  0 0.00125 0  0.00125 0.00125 0  0.0025 0.00125 0  0.00375 0.00125 0  0.005 0.00125 0  0.006249999999999999 0.00125 0  0.0075 0.00125 0  0.008749999999999999 0.00125 0  0.01 0.00125 0  0.01125 0.00125 0  0.0125 0.00125 0  0.01375 0.00125 0  0.015 0.00125 0  0.01625 0.00125 0  0.0175 0.00125 0  0.01875 0.00125 0  0.02 0.00125 0  0.02125 0.00125 0  0.0225 0.00125 0  0.02375 0.00125 0  0.025 0.00125 0  0.02625 0.00125 0  0.0275 0.00125 0  0.02875 0.00125 0  0.03 0.00125 0  0.03125 0.00125 0  0.0325 0.00125 0  0.03375 0.00125 0  0.035 0.00125 0  0.03625 0.00125 0  0.0375 0.00125 0  0.03875 0.00125 0  0.04 0.00125 0  0.04125 0.00125 0  0.0425 0.00125 0  0.04375 0.00125 0  0.04500000000000001 0.00125 0  0.04624999999999999 0.00125 0  0.04749999999999999 0.00125 0  0.04874999999999999 0.00125 0  0.05 0.00125 0  0.05125 0.00125 0  0.0525 0.00125 0  0.05375 0.00125 0  0.05499999999999999 0.00125 0  0.05624999999999999 0.00125 0  0.0575 0.00125 0  0.05875 0.00125 0  0.06 0.00125 0  0 0.0025 0  0.00125 0.0025 0  0.0025 0.0025 0  0.00375 0.0025 0  0.005 0.0025 0  0.006249999999999999 0.0025 0  0.0075 0.0025 0  0.008749999999999999 0.0025 0  0.01 0.0025 0  0.01125 0.0025 0  0.0125 0.0025 0  0.01375 0.0025 0  0.015 0.0025 0  0.01625 0.0025 0  0.0175 0.0025 0  0.01875 0.0025 0  0.02 0.0025 0  0.02125 0.0025 0  0.0225 0.0025 0  0.02375 0.0025 0  0.025 0.0025 0  0.02625 0.0025 0  0.0275 0.0025 0  0.02875 0.0025 0  0.03 0.0025 0  0.03125 0.0025 0  0.0325 0.0025 0  0.03375 0.0025 0  0.035 0.0025 0  0.03625 0.0025 0  0.0375 0.0025 0  0.03875 0.0025 0  0.04 0.0025 0  0.04125 0.0025 0  0.0425 0.0025 0  0.04375 0.0025 0  0.04500000000000001 0.0025 0  0.04624999999999999 0.0025 0  0.04749999999999999 0.0025 0  0.04874999999999999 0.0025 0  0.05 0.0025 0  0.05125 0.0025 0  0.0525 0.0025 0  0.05375 0.0025 0  0.05499999999999999 0.0025 0  0.05624999999999999 0.0025 0  0.0575 0.0025 0  0.05875 0.0025 0  0.06 0.0025 0  0 0.00375 0  0.00125 0.00375 0  0.0025 0.00375 0  0.00375 0.00375 0  0.005 0.00375 0  0.006249999999999999 0.00375 0  0.0075 0.00375 0  0.008749999999999999 0.00375 0  0.01 0.00375 0  0.01125 0.00375 0  0.0125 0.00375 0  0.01375 0.00375 0  0.015 0.00375 0  0.01625 0.00375 0  0.0175 0.00375 0  0.01875 0.00375 0  0.02 0.00375 0  0.02125 0.00375 0  0.0225 0.00375 0  0.02375 0.00375 0  0.025 0.00375 0  0.02625 0.00375 0  0.0275 0.00375 0  0.02875 0.00375 0  0.03 0.00375 0  0.03125 0.00375 0  0.0325 0.00375 0  0.03375 0.00375 0  0.035 0.00375 0  0.03625 0.00375 0  0.0375 0.00375 0  0.03875 0.00375 0  0.04 0.00375 0  0.04125 0.00375 0  0.0425 0.00375 0  0.04375 0.00375 0  0.04500000000000001 0.00375 0  0.04624999999999999 0.00375 0  0.04749999999999999 0.00375 0  0.04874999999999999 0.00375 0  0.05 0.00375 0  0.05125 0.00375 0  0.0525 0.00375 0  0.05375 0.00375 0  0.05499999999999999 0.00375 0  0.05624999999999999 0.00375 0  0.0575 0.00375 0  0.05875 0.00375 0  0.06 0.00375 0  0 0.005 0  0.00125 0.005 0  0.0025 0.005 0  0.00375 0.005 0  0.005 0.005 0  0.006249999999999999 0.005 0  0.0075 0.005 0  0.008749999999999999 0.005 0  0.01 0.005 0  0.01125 0.005 0  0.0125 0.005 0  0.01375 0.005 0  0.015 0.005 0  0.01625 0.005 0  0.0175 0.005 0  0.01875 0.005 0  0.02 0.005 0  0.02125 0.005 0  0.0225 0.005 0  0.02375 0.005 0  0.025 0.005 0  0.02625 0.005 0  0.0275 0.005 0  0.02875 0.005 0  0.03 0.005 0  0.03125 0.005 0  0.0325 0.005 0  0.03375 0.005 0  0.035 0.005 0  0.03625 0.005 0  0.0375 0.005 0  0.03875 0.005 0  0.04 0.005 0  0.04125 0.005 0  0.0425 0.005 0  0.04375 0.005 0  0.04500000000000001 0.005 0  0.04624999999999999 0.005 0  0.04749999999999999 0.005 0  0.04874999999999999 0.005 0  0.05 0.005 0  0.05125 0.005 0  0.0525 0.005 0  0.05375 0.005 0  0.05499999999999999 0.005 0  0.05624999999999999 0.005 0  0.0575 0.005 0  0.05875 0.005 0  0.06 0.005 0  0 0.00625 0  0.00125 0.00625 0  0.0025 0.00625 0  0.00375 0.00625 0  0.005 0.00625 0  0.006249999999999999 0.00625 0  0.0075 0.00625 0  0.008749999999999999 0.00625 0  0.01 0.00625 0  0.01125 0.00625 0  0.0125 0.00625 0  0.01375 0.00625 0  0.015 0.00625 0  0.01625 0.00625 0  0.0175 0.00625 0  0.01875 0.00625 0  0.02 0.00625 0  0.02125 0.00625 0  0.0225 0.00625 0  0.02375 0.00625 0  0.025 0.00625 0  0.02625 0.00625 0  0.0275 0.00625 0  0.02875 0.00625 0  0.03 0.00625 0  0.03125 0.00625 0  0.0325 0.00625 0  0.03375 0.00625 0  0.035 0.00625 0  0.03625 0.00625 0  0.0375 0.00625 0  0.03875 0.00625 0  0.04 0.00625 0  0.04125 0.00625 0  0.0425 0.00625 0  0.04375 0.00625 0  0.04500000000000001 0.00625 0  0.04624999999999999 0.00625 0  0.04749999999999999 0.00625 0  0.04874999999999999 0.00625 0  0.05 0.00625 0  0.05125 0.00625 0  0.0525 0.00625 0  0.05375 0.00625 0  0.05499999999999999 0.00625 0  0.05624999999999999 0.00625 0  0.0575 0.00625 0  0.05875 0.00625 0  0.06 0.00625 0  0 0.0075 0  0.00125 0.0075 0  0.0025 0.0075 0  0.00375 0.0075 0  0.005 0.0075 0  0.006249999999999999 0.0075 0  0.0075 0.0075 0  0.008749999999999999 0.0075 0  0.01 0.0075 0  0.01125 0.0075 0  0.0125 0.0075 0  0.01375 0.0075 0  0.015 0.0075 0  0.01625 0.0075 0  0.0175 0.0075 0  0.01875 0.0075 0  0.02 0.0075 0  0.02125 0.0075 0  0.0225 0.0075 0  0.02375 0.0075 0  0.025 0.0075 0  0.02625 0.0075 0  0.0275 0.0075 0  0.02875 0.0075 0  0.03 0.0075 0  0.03125 0.0075 0  0.0325 0.0075 0  0.03375 0.0075 0  0.035 0.0075 0  0.03625 0.0075 0  0.0375 0.0075 0  0.03875 0.0075 0  0.04 0.0075 0  0.04125 0.0075 0  0.0425 0.0075 0  0.04375 0.0075 0  0.04500000000000001 0.0075 0  0.04624999999999999 0.0075 0  0.04749999999999999 0.0075 0  0.04874999999999999 0.0075 0  0.05 0.0075 0  0.05125 0.0075 0  0.0525 0.0075 0  0.05375 0.0075 0  0.05499999999999999 0.0075 0  0.05624999999999999 0.0075 0  0.0575 0.0075 0  0.05875 0.0075 0  0.06 0.0075 0  0 0.008750000000000001 0  0.00125 0.008750000000000001 0  0.0025 0.008750000000000001 0  0.00375 0.008750000000000001 0  0.005 0.008750000000000001 0  0.006249999999999999 0.008750000000000001 0  0.0075 0.008750000000000001 0  0.008749999999999999 0.008750000000000001 0  0.01 0.008750000000000001 0  0.01125 0.008750000000000001 0  0.0125 0.008750000000000001 0  0.01375 0.008750000000000001 0  0.015 0.008750000000000001 0  0.01625 0.008750000000000001 0  0.0175 0.008750000000000001 0  0.01875 0.008750000000000001 0  0.02 0.008750000000000001 0  0.02125 0.008750000000000001 0  0.0225 0.008750000000000001 0  0.02375 0.008750000000000001 0  0.025 0.008750000000000001 0  0.02625 0.008750000000000001 0  0.0275 0.008750000000000001 0  0.02875 0.008750000000000001 0  0.03 0.008750000000000001 0  0.03125 0.008750000000000001 0  0.0325 0.008750000000000001 0  0.03375 0.008750000000000001 0  0.035 0.008750000000000001 0  0.03625 0.008750000000000001 0  0.0375 0.008750000000000001 0  0.03875 0.008750000000000001 0  0.04 0.008750000000000001 0  0.04125 0.008750000000000001 0  0.0425 0.008750000000000001 0  0.04375 0.008750000000000001 0  0.04500000000000001 0.008750000000000001 0  0.04624999999999999 0.008750000000000001 0  0.04749999999999999 0.008750000000000001 0  0.04874999999999999 0.008750000000000001 0  0.05 0.008750000000000001 0  0.05125 0.008750000000000001 0  0.0525 0.008750000000000001 0  0.05375 0.008750000000000001 0  0.05499999999999999 0.008750000000000001 0  0.05624999999999999 0.008750000000000001 0  0.0575 0.008750000000000001 0  0.05875 0.008750000000000001 0  0.06 0.008750000000000001 0  0 0.01 0  0.00125 0.01 0  0.0025 0.01 0  0.00375 0.01 0  0.005 0.01 0  0.006249999999999999 0.01 0  0.0075 0.01 0  0.008749999999999999 0.01 0  0.01 0.01 0  0.01125 0.01 0  0.0125 0.01 0  0.01375 0.01 0  0.015 0.01 0  0.01625 0.01 0  0.0175 0.01 0  0.01875 0.01 0  0.02 0.01 0  0.02125 0.01 0  0.0225 0.01 0  0.02375 0.01 0  0.025 0.01 0  0.02625 0.01 0  0.0275 0.01 0  0.02875 0.01 0  0.03 0.01 0  0.03125 0.01 0  0.0325 0.01 0  0.03375 0.01 0  0.035 0.01 0  0.03625 0.01 0  0.0375 0.01 0  0.03875 0.01 0  0.04 0.01 0  0.04125 0.01 0  0.0425 0.01 0  0.04375 0.01 0  0.04500000000000001 0.01 0  0.04624999999999999 0.01 0  0.04749999999999999 0.01 0  0.04874999999999999 0.01 0  0.05 0.01 0  0.05125 0.01 0  0.0525 0.01 0  0.05375 0.01 0  0.05499999999999999 0.01 0  0.05624999999999999 0.01 0  0.0575 0.01 0  0.05875 0.01 0  0.06 0.01 0  0 0.01125 0  0.00125 0.01125 0  0.0025 0.01125 0  0.00375 0.01125 0  0.005 0.01125 0  0.006249999999999999 0.01125 0  0.0075 0.01125 0  0.008749999999999999 0.01125 0  0.01 0.01125 0  0.01125 0.01125 0  0.0125 0.01125 0  0.01375 0.01125 0  0.015 0.01125 0  0.01625 0.01125 0  0.0175 0.01125 0  0.01875 0.01125 0  0.02 0.01125 0  0.02125 0.01125 0  0.0225 0.01125 0  0.02375 0.01125 0  0.025 0.01125 0  0.02625 0.01125 0  0.0275 0.01125 0  0.02875 0.01125 0  0.03 0.01125 0  0.03125 0.01125 0  0.0325 0.01125 0  0.03375 0.01125 0  0.035 0.01125 0  0.03625 0.01125 0  0.0375 0.01125 0  0.03875 0.01125 0  0.04 0.01125 0  0.04125 0.01125 0  0.0425 0.01125 0  0.04375 0.01125 0  0.04500000000000001 0.01125 0  0.04624999999999999 0.01125 0  0.04749999999999999 0.01125 0  0.04874999999999999 0.01125 0  0.05 0.01125 0  0.05125 0.01125 0  0.0525 0.01125 0  0.05375 0.01125 0  0.05499999999999999 0.01125 0  0.05
[...]
<PointData  Vectors="displacements"> 
<DataArray  type="Float64"  Name="displacements"  NumberOfComponents="3" format="ascii">0.0000000000000000e+00 0.0000000000000000e+00 0.0000000000000000e+00  -1.4214602788374573e-03 -1.5243962736697172e-03 0.0000000000000000e+00  -2.3526525000883976e-03 -2.7209297715533359e-03 0.0000000000000000e+00  -3.0106895923279809e-03 -3.9198271579615127e-03 0.0000000000000000e+00  -3.4976764430663370e-03 -5.0872295272710536e-03 0.0000000000000000e+00  -3.8518734015020465e-03 -6.2294194550765224e-03 0.0000000000000000e+00  -4.0975804826336604e-03 -7.3435839831978147e-03 0.0000000000000000e+00  -4.2514277340635525e-03 -8.4289451068311916e-03 0.0000000000000000e+00  -4.3263771412284753e-03 -9.4862419188340569e-03 0.0000000000000000e+00  -4.3332650108460985e-03 -1.0518789794970599e-02 0.0000000000000000e+00  -4.2814713942056215e-03 -1.1533529441742043e-02 0.0000000000000000e+00  -4.1785741312969742e-03 -1.2542539721788658e-02 0.0000000000000000e+00  -4.0280506618923153e-03 -1.3564705374214654e-02 0.0000000000000000e+00  -3.8229341133727852e-03 -1.4622381920473524e-02 0.0000000000000000e+00  -3.5431253684936456e-03 -1.5728432683338928e-02 0.0000000000000000e+00  -3.1627013626915998e-03 -1.6867856296098476e-02 0.0000000000000000e+00  -2.6733961965558235e-03 -1.7974884224889902e-02 0.0000000000000000e+00  -2.1649267094904627e-03 -1.9074715029649629e-02 0.0000000000000000e+00  -1.5025286782985395e-03 -2.0054002461554709e-02 0.0000000000000000e+00  -1.4823795905517445e-03 -2.0796049783670518e-02 0.0000000000000000e+00  -1.4339416136952830e-03 -2.1627914481993821e-02 0.0000000000000000e+00  -1.3763728776778493e-03 -2.2539865418132413e-02 0.0000000000000000e+00  -1.2718693577081378e-03 -2.3544293045427822e-02 0.0000000000000000e+00  -8.9359962523967440e-04 -2.5266836771807084e-02 0.0000000000000000e+00  -1.7734502971433272e-04 -2.6486580772491539e-02 0.0000000000000000e+00  5.5204251387466991e-04 -2.5505067575803692e-02 0.0000000000000000e+00  9.6138442034434594e-04 -2.3998138011474605e-02 0.0000000000000000e+00  1.0960014846682804e-03 -2.3179259669710552e-02 0.0000000000000000e+00  1.1959381599999162e-03 -2.2406743796794193e-02 0.0000000000000000e+00  1.3064245208112926e-03 -2.1633760572812580e-02 0.0000000000000000e+00  1.3714485890204756e-03 -2.0890069125590740e-02 0.0000000000000000e+00  2.3684442402098979e-03 -1.9617139019453181e-02 0.0000000000000000e+00  3.0232556425012591e-03 -1.8319873697281424e-02 0.0000000000000000e+00  3.5684190400801495e-03 -1.7107544777896323e-02 0.0000000000000000e+00  3.9954877862187254e-03 -1.5918596892575188e-02 0.0000000000000000e+00  4.3156446743578885e-03 -1.4752325424974814e-02 0.0000000000000000e+00  4.5435573943393556e-03 -1.3604612664478126e-02 0.0000000000000000e+00  4.6872804946504918e-03 -1.2470408662447759e-02 0.0000000000000000e+00  4.7538462443131660e-03 -1.1345708448102938e-02 0.0000000000000000e+00  4.7459447834611495e-03 -1.0226435531345909e-02 0.0000000000000000e+00  4.6638770753379905e-03 -9.1100977918279792e-03 0.0000000000000000e+00  4.5052526140484826e-03 -7.9954891443710097e-03 0.0000000000000000e+00  4.2654437852860713e-03 -6.8828432611088685e-03 0.0000000000000000e+00  3.9372043498953320e-03 -5.7734714665455978e-03 0.0000000000000000e+00  3.5097994361929915e-03 -4.6689787415125214e-03 0.0000000000000000e+00  2.9657793878396111e-03 -3.5713982398872888e-03 0.0000000000000000e+00  2.2757226867273798e-03 -2.4716919654895891e-03 0.0000000000000000e+00  1.3521017869993401e-03 -1.3933911556382713e-03 0.0000000000000000e+00  0.0000000000000000e+00 0.0000000000000000e+00 0.0000000000000000e+00  0.0000000000000000e+00 0.0000000000000000e+00 0.0000000000000000e+00  -6.7966916642421668e-04 -1.1206160329284189e-03 0.0000000000000000e+00  -1.4251175773334593e-03 -2.4365455329282476e-03 0.0000000000000000e+00  -2.0279362255790664e-03 -3.6919620078092121e-03 0.0000000000000000e+00  -2.4975971023964566e-03 -4.9156805829858787e-03 0.0000000000000000e+00  -2.8523850298163428e-03 -6.1043187792652600e-03 0.0000000000000000e+00  -3.1078881265456872e-03 -7.2588584693835615e-03 0.0000000000000000e+00  -3.2759972261380867e-03 -8.3795802034440370e-03 0.0000000000000000e+00  -3.3658699066420653e-03 -9.4681991229216157e-03 0.0000000000000000e+00  -3.3846109837490290e-03 -1.0528617100562271e-02 0.0000000000000000e+00  -3.3376412714719705e-03 -1.1568246396132308e-02 0.0000000000000000e+00  -3.2286070145658781e-03 -1.2599738569883638e-02 0.0000000000000000e+00  -3.0595248655951616e-03 -1.3642688370267751e-02 0.0000000000000000e+00  -2.8306221856960567e-03 -1.4724481847393917e-02 0.0000000000000000e+00  -2.5318504441388754e-03 -1.5866483304540439e-02 0.0000000000000000e+00  -2.1491782804264033e-03 -1.7053281525549538e-02 0.0000000000000000e+00  -1.6708201668071503e-03 -1.8226443540897055e-02 0.0000000000000000e+00  -1.0359588574935439e-03 -1.9317241668178206e-02 0.0000000000000000e+00  -9.6178926296427091e-04 -2.0022071364286388e-02 0.0000000000000000e+00  -8.6464311251765525e-04 -2.0788987335818243e-02 0.0000000000000000e+00  -7.4636619127700155e-04 -2.1633653628153476e-02 0.0000000000000000e+00  -6.0636101078369471e-04 -2.2550026479908385e-02 0.0000000000000000e+00  -3.9601180099959785e-04 -2.3640775619894704e-02 0.0000000000000000e+00  -1.4041222763370119e-04 -2.4989336195157454e-02 0.0000000000000000e+00  -7.0419615737849140e-05 -2.5752380428603956e-02 0.0000000000000000e+00  8.0989294112400328e-06 -2.5239306855124894e-02 0.0000000000000000e+00  2.8567533998732496e-04 -2.4111178560380558e-02 0.0000000000000000e+00  5.2207577050607343e-04 -2.3203790523219196e-02 0.0000000000000000e+00  6.9715575455942566e-04 -2.2423515248714176e-02 0.0000000000000000e+00  8.6864349776735760e-04 -2.1626940995139555e-02 0.0000000000000000e+00  1.0357059438584186e-03 -2.0804260900955461e-02 0.0000000000000000e+00  1.1890401364765964e-03 -1.9944608585887882e-02 0.0000000000000000e+00  1.9528223317510876e-03 -1.8588218054270984e-02 0.0000000000000000e+00  2.5155294822017393e-03 -1.7313269579047684e-02 0.0000000000000000e+00  2.9461321583530418e-03 -1.6075862589260553e-02 0.0000000000000000e+00  3.2734225319621872e-03 -1.4868222968028642e-02 0.0000000000000000e+00  3.5047773388251760e-03 -1.3682796966660308e-02 0.0000000000000000e+00  3.6528312025689725e-03 -1.2515127003485001e-02 0.0000000000000000e+00  3.7226081506283896e-03 -1.1358513196196046e-02 0.0000000000000000e+00  3.7182616478437505e-03 -1.0208255749532612e-02 0.0000000000000000e+00  3.6406731231171537e-03 -9.0605416259890385e-03 0.0000000000000000e+00  3.4888674913440203e-03 -7.9133888150622923e-03 0.0000000000000000e+00  3.2596909289777849e-03 -6.7661344188497102e-03 0.0000000000000000e+00  2.9478378101887026e-03 -5.6190798710912069e-03 0.0000000000000000e+00  2.5452744633032657e-03 -4.4728580123856443e-03 0.0000000000000000e+00  2.0404006761326585e-03 -3.3260685253521231e-03 0.0000000000000000e+00  1.4187194462188532e-03 -2.1789671427439399e-03 0.0000000000000000e+00  6.7269975784454549e-04 -9.9635305575077352e-04 0.0000000000000000e+00  0.0000000000000000e+00 0.0000000000000000e+00 0.0000000000000000e+00  0.0000000000000000e+00 0.0000000000000000e+00 0.0000000000000000e+00  -4.6245545809303569e-04 -1.0261298008145431e-03 0.0000000000000000e+00  -9.3224739796884677e-04 -2.2506302336344469e-03 0.0000000000000000e+00  -1.3911963885686279e-03 -3.5233100301503154e-03 0.0000000000000000e+00  -1.7829919964438216e-03 -4.7752575594118751e-03 0.0000000000000000e+00  -2.0965550182444870e-03 -5.9969639638423550e-03 0.0000000000000000e+00  -2.3315549621965360e-03 -7.1839336435494689e-03 0.0000000000000000e+00  -2.4909746650999508e-03 -8.3357037845535591e-03 0.0000000000000000e+00  -2.5780807531720087e-03 -9.4537491561645232e-03 0.0000000000000000e+00  -2.5956340283615747e-03 -1.0541957894292995e-02 0.0000000000000000e+00  -2.5455594652424086e-03 -1.1607399079846195e-02 0.0000000000000000e+00  -2.4296160295687605e-03 -1.2661884080104605e-02 0.0000000000000000e+00  -2.2495682818967000e-03 -1.3723243078344546e-02 0.0000000000000000e+00  -2.0102143257371267e-03 -1.4816120382725265e-02 0.0000000000000000e+00  -1.7183186742014550e-03 -1.5988185546509041e-02 0.0000000000000000e+00  -1.3312187742142525e-03 -1.7248670473428710e-02 0.0000000000000000e+00  -8.1384436668863593e-04 -1.8514917207523414e-02 0.0000000000000000e+00  -7.1750526457579563e-04 -1.9241133884413706e-02 0.0000000000000000e+00  -6.2145910122195030e-04 -1.9959088736219162e-02 0.0000000000000000e+00  -5.2244914770381372e-04 -2.0717473204718333e-02 0.0000000000000000e+00  -4.0964156186054851e-04 -2.1558259182855755e-02 0.0000000000000000e+00  -2.6555558864579433e-04 -2.2494918796403949e-02 0.0000000000000000e+00  -1.0870588532614689e-04 -2.3573217525131526e-02 0.0000000000000000e+00  -1.6793943350279938e-05 -2.4675717514798225e-02 0.0000000000000000e+00  2.1862234213007124e-05 -2.5255927312548172e-02 0.0000000000000000e+00  6.9589537434346958e-05 -2.4944446491230243e-02 0.0000000000000000e+00  1.8724008894058981e-04 -2.4073017562274781e-02 0.0000000000000000e+00  3.8208063090826061e-04 -2.3173336512775380e-02 0.0000000000000000e+00  5.7141257638592031e-04 -2.2352369269659802e-02 0.0000000000000000e+00  7.4006198238208071e-04 -2.1534832410994072e-02 0.0000000000000000e+00  9.0652387517339698e-04 -2.0683074578709180e-02 0.0000000000000000e+00  1.0745775745484756e-03 -1.9788007828303606e-02 0.0000000000000000e+00  1.2422118173921594e-03 -1.8844627629605041e-02 0.0000000000000000e+00  1.7551200777104381e-03 -1.7493441132851010e-02 0.0000000000000000e+00  2.1614798558886421e-03 -1.6219012992263779e-02 0.0000000000000000e+00  2.4569745860780019e-03 -1.4969815445250761e-02 0.0000000000000000e+00  2.6728632942617831e-03 -1.3753053436801508e-02 0.0000000000000000e+00  2.8081361013797082e-03 -1.2554554657380139e-02 0.0000000000000000e+00  2.8728972617518612e-03 -1.1370066998790819e-02 0.0000000000000000e+00  2.8689485038916052e-03 -1.0192017456773993e-02 0.0000000000000000e+00  2.7984179809797042e-03 -9.0165762441786583e-03 0.0000000000000000e+00  2.6610404740870443e-03 -7.8410099388070628e-03 0.0000000000000000e+00  2.4557678718648609e-03 -6.6645323489146905e-03 0.0000000000000000e+00  2.1807587705982684e-03 -5.4875544323338332e-03 0.0000000000000000e+00  1.8344108625587652e-03 -4.3114499574944893e-03 0.0000000000000000e+00  1.4180506407786464e-03 -3.1399930541253672e-03 0.0000000000000000e+00  9.4282637103512831e-04 -1.9793444059913326e-03 0.0000000000000000e+00  4.6276804101250390e-04 -8.8780125664851247e-04 0.0000000000000000e+00  0.0000000000000000e+00 0.0000000000000000e+00 0.0000000000000000e+00  0.0000000000000000e+00 0.0000000000000000e+00 0.0000000000000000e+00  -3.3808170810083399e-04 -1.0203707793634330e-03 0.0000000000000000e+00  -6.7029005344626438e-04 -2.1926377998054535e-03 0.0000000000000000e+00  -9.9614389514287183e-04 -3.4357347757552233e-03 0.0000000000000000e+00  -1.2967976036394315e-03 -4.6899934104001903e-03 0.0000000000000000e+00  -1.5513916905592919e-03 -5.9260977667816156e-03 0.0000000000000000e+00  -1.7501674486984453e-03 -7.1336302430602865e-03 0.0000000000000000e+00  -1.8885181691028934e-03 -8.3086857628003035e-03 0.0000000000000000e+00  -1.9643155693402537e-03 -9.4512164470995693e-03 0.0000000000000000e+00  -1.9762556636685282e-03 -1.0563840000888549e-02 0.0000000000000000e+00  -1.9237710759279674e-03 -1.1652477623530584e-02 0.0000000000000000e+00  -1.8057899764441553e-03 -1.2726345662966805e-02 0.0000000000000000e+00  -1.6235681838729277e-03 -1.3800935807247377e-02 0.0000000000000000e+00  -1.3737747251732564e-03 -1.4899409067025818e-02 0.0000000000000000e+00  -1.0594317788344668e-03 -1.6059817210848121e-02 0.0000000000000000e+00  -6.4155682201523891e-04 -1.7510349460076517e-02 0.0000000000000000e+00  -4.9167538076768042e-04 -1.8424610706108780e-02 0.0000000000000000e+00  -4.3339131521774848e-04 -1.9158027114479920e-02 0.0000000000000000e+00  -3.4834867278021257e-04 -1.9876583944789354e-02 0.0000000000000000e+00  -2.5808860993555802e-04 -2.0607024450416428e-02 0.0000000000000000e+00  -1.5209123607599890e-04 -2.1440192979696935e-02 0.0000000000000000e+00  -3.1498422859221789e-05 -2.2373473539314286e-02 0.0000000000000000e+00  8.0085663011414789e-05 -2.3394313990540469e-02 0.0000000000000000e+00  1.6197572155973700e-04 -2.4466027034037212e-02 0.0000000000000000e+00  1.1875262423707351e-04 -2.5050899324177856e-02 0.0000000000000000e+00  7.1473018657324395e-05 -2.4757786148414115e-02 0.0000000000000000e+00  1.5763148762978742e-04 -2.3937079253452578e-02 0.0000000000000000e+00  2.9393259779364082e-04 -2.3090160418923346e-02 0.0000000000000000e+00  4.5605312449084411e-04 -2.2253731719988592e-02 0.0000000000000000e+00  6.1887659126206099e-04 -2.1416602420473215e-02 0.0000000000000000e+00  7.8051076405912347e-04 -2.0550392459021436e-02 0.0000000000000000e+00  9.4722611438973218e-04 -1.9639082636715363e-02 0.0000000000000000e+00  1.1205324569892594e-03 -1.8675616114625933e-02 0.0000000000000000e+00  1.2978996595221042e-03 -1.7657034720685780e-02 0.0000000000000000e+00  1.6073192792393006e-03 -1.6307345416313998e-02 0.0000000000000000e+00  1.8693286569279159e-03 -1.5045139663921658e-02 0.0000000000000000e+00  2.0374455793250681e-03 -1.3797830123625312e-02 0.0000000000000000e+00  2.1492739203541923e-03 -1.2580959513985314e-02 0.0000000000000000e+00  2.1975349465579185e-03 -1.1375028679224830e-02 0.0000000000000000e+00  2.1898333518874332e-03 -1.0177070953519435e-02 0.0000000000000000e+00  2.1256821666509737e-03 -8.9806823129597937e-03 0.0000000000000000e+00  2.0063344828116828e-03 -7.7842282680253951e-03 0.0000000000000000e+00  1.8321532250964569e-03 -6.5873590369737289e-03 0.0000000000000000e+00  1.6047012160669487e-03 -5.3921192143788800e-03 0.0000000000000000e+00  1.3278522668877352e-03 -4.2033042230356435e-03 0.0000000000000000e+00  1.0106301293973158e-03 -3.0307361184717363e-03 0.0000000000000000e+00  6.7302024211258701e-04 -1.9003014072223507e-03 0.0000000000000000e+00  3.3466659724112164e-04 -8.6519211073844270e-04 0.0000000000000000e+00  0.0000000000000000e+00 0.0000000000000000e+00 0.0000000000000000e+00  0.0000000000000000e+00 0.0000000000000000e+00 0.0000000000000000e+00  -2.6524944700860836e-04 -1.0454653427062800e-03 0.0000000000000000e+00  -5.1283597317620944e-04 -2.1993503390816556e-03 0.0000000000000000e+00  -7.5267795567062130e-04 -3.4180797524533033e-03 0.0000000000000000e+00  -9.7822450824708914e-04 -4.6598181799446673e-03 0.0000000000000000e+00  -1.1773391663394885e-03 -5.8965277760018196e-03 0.0000000000000000e+00  -1.3386067390088118e-03 -7.1130278265619292e-03 0.0000000000000000e+00  -1.4541266294675332e-03 -8.3024983392816273e-03 0.0000000000000000e+00  -1.5183204024979940e-03 -9.4624777122444947e-03 0.0000000000000000e+00  -1.5277421114424259e-03 -1.0593853653109169e-02 0.0000000000000000e+00  -1.4793481837078390e-03 -1.1699435088584630e-02 0.0000000000000000e+00  -1.3735732382207583e-03 -1.2787483749516656e-02 0.0000000000000000e+00  -1.2048469854813411e-03 -1.3866741144221673e-02 0.0000000000000000e+00  -9.8126106282794986e-04 -1.4963302198418620e-02 0.0000000000000000e+00  -6.7203171829845264e-04 -1.6113782612384293e-02 0.0000000000000000e+00  -3.7852885711420957e-04 -1.7388149105057437e-02 0.0000000000000000e+00  -3.1506870784652678e-04 -1.8237974358625880e-02 0.0000000000000000e+00  -2.3544896796821605e-04 -1.9030091350619147e-02 0.0000000000000000e+00  -1.5378263198167843e-04 -1.9766050325081115e-02 0.0000000000000000e+00  -7.9992493948272505e-05 -2.0462955193445716e-02 0.0000000000000000e+00  2.3598185260577116e-05 -2.1291021685549447e-02 0.0000000000000000e+00  1.4631701941976202e-04 -2.2207924745962896e-02 0.0000000000000000e+00  2.6534938761406992e-04 -2.3198058059673454e-02 0.0000000000000000e+00  3.2548524674004710e-04 -2.4234753933533033e-02 0.0000000000000000e+00  1.9031790495909547e-04 -2.4850194830769019e-02 0.0000000000000000e+00  3.3781170574363344e-05 -2.4561354946591590e-02 0.0000000000000000e+00  6.8905725812124912e-05 -2.3787589512627945e-02 0.0000000000000000e+00  1.8436676438866179e-04 -2.2972593639477779e-02 0.0000000000000000e+00  3.2702966987231886e-04 -2.2141326796955629e-02 0.0000000000000000e+00  4.8028302648637453e-04 -2.1292876251608167e-02 0.0000000000000000e+00  6.3719058505081600e-04 -2.0414207228516747e-02 0.0000000000000000e+00  7.9897729602099643e-04 -1.9491376062125972e-02 0.0000000000000000e+00  9.6863789022245852e-04 -1.8514213923420363e-02 0.0000000000000000e+00  1.1460998753743995e-03 -1.7478671091430458e-02 0.0000000000000000e+00  1.3294512697602072e-03 -1.6385513589102303e-02 0.0000000000000000e+00  1.4615988137478236e-03 -1.5050918058746707e-02 0.0000000000000000e+00  1.5965318013383388e-03 -1.3814779220176121e-02 0.0000000000000000e+00  1.6572408321541875e-03 -1.2580932280209758e-02 0.0000000000000000e+00  1.6838970149946914e-03 -1.1369826529579624e-02 0.0000000000000000e+00  1.6646189433477305e-03 -1.0160500699351436e-02 0.0000000000000000e+00  1.6046660316716501e-03 -8.9532303486025751e-03 0.0000000000000000e+00  1.5026621809915873e-03 -7.7449383652328100e-03 0.0000000000000000e+00  1.3605378552667246e-03 -6.5377542356148538e-03 0.0000000000000000e+00  1.1811399845517104e-03 -5.3358032448142800e-03 0.0000000000000000e+00  9.7042596683996618e-04 -4.1474098080177433e-03 0.0000000000000000e+00  7.3821036283129593e-04 -2.9878426569621306e-03 0.0000000000000000e+00  4.9615815466721861e-04 -1.8836238663347317e-03 0.0000000000000000e+00  2.5213987452717363e-04 -8.7382114286509822e-04 0.0000000000000000e+00  0.0000000000000000e+00 0.0000000000000000e+00 0.0000000000000000e+00  0.0000000000000000e+00 0.0000000000000000e+00 0.0000000000000000e+00  -2.2064419301187882e-04 -1.0829078601369549e-03 0.0000000000000000e+00  -4.1847143611490814e-04 -2.2384243103409874e-03 0.0000000000000000e+00  -6.0468880753803463e-04 -3.4436683775434141e-03 0.0000000000000000e+00  -7.7996658245116878e-04 -4.6721301061817318e-03 0.0000000000000000e+00  -9.3801801164454968e-04 -5.9020523203202925e-03 0.0000000000000000e+00  -1.0704368212766881e-03 -7.1190485589662312e-03 0.0000000000000000e+00  -1.1690817966859769e-03 -8.3146462786299544e-03 0.0000000000000000e+00  -1.2278978720238610e-03 -9.4847822720960564e-03 0.0000000000000000e+00  -1.2416452693921596e-03 -1.0626866084258892e-02 0.0000000000000000e+00  -1.2102579010837692e-03 -1.1742658086913224e-02 0.0000000000000000e+00  -1.1293389862112066e-03 -1.2830492497760346e-02 0.0000000000000000e+00  -1.0152400381149291e-03 -1.3908693347468694e-02 0.0000000000000000e+00  -8.4004025480626020e-04 -1.4966931045512799e-02 0.0000000000000000e+00  -7.0499990400842941e-04 -1.6068833200309128e-02 0.0000000000000000e+00  -4.8409614650542416e-04 -1.7082586115735952e-02 0.0000000000000000e+00  -3.3284629070565907e-04 -1.7989009619184645e-02 0.0000000000000000e+00  -2.0247735543809127e-04 -1.8833156360583417e-02 0.0000000000000000e+00  -1.0067497241896591e-04 -1.9590942397160103e-02 0.0000000000000000e+00  -1.4328549066341839e-05 -2.0297436724135656e-02 0.0000000000000000e+00  1.2019775549143047e-04 -2.1126968403721542e-02 0.0000000000000000e+00  2.6667056473362412e-04 -2.2030402479955392e-02 0.0000000000000000e+00  4.0159558207007864e-04 -2.2995264936473362e-02 0.0000000000000000e+00  4.5675740797613862e-04 -2.3974426957999770e-02 0.0000000000000000e+00  2.2230475209992321e-04 -2.4622846976306449e-02 0.0000000000000000e+00  -6.7761845898953467e-05 -2.4356870772534223e-02 0.0000000000000000e+00  -6.6265828722664443e-05 -2.3640321660686123e-02 0.0000000000000000e+00  3.4360878462237180e-05 -2.2846947335994530e-02 0.0000000000000000e+00  1.6463296704087826e-04 -2.2023967624723487e-02 0.0000000000000000e+00  3.0843482664658528e-04 -2.1170960837342309e-02 0.0000000000000000e+00  4.6029408393493944e-04 -2.0281735075994140e-02 0.0000000000000000e+00  6.1730152087408703e-04 -1.9346978139661169e-02 0.0000000000000000e+00  7.8077258025081918e-04 -1.8357433974440382e-02 0.0000000000000000e+00  9.5146027155011