<?xml version="1.0"?>
<VTKFile type="UnstructuredGrid"  version="0.1"  >
<UnstructuredGrid>
<Piece  NumberOfPoints="3321" NumberOfCells="3200">
<Points>
<DataArray  type="Float64"  NumberOfComponents="3"  format="ascii">0 0 0  2 0 0  4 0 0  6 0 0  8 0 0  10 0 0  12 0 0  14 0 0  16 0 0  18 0 0  20 0 0  22 0 0  24 0 0  26 0 0  28 0 0  30 0 0  32 0 0  34 0 0  36 0 0  38 0 0  40 0 0  42 0 0  44 0 0  46 0 0  48 0 0  50 0 0  52 0 0  54 0 0  56 0 0  58 0 0  60 0 0  62 0 0  64 0 0  66 0 0  68 0 0  70 0 0  72 0 0  74 0 0  76 0 0  78 0 0  80 0 0  82 0 0  84 0 0  86 0 0  88 0 0  90 0 0  92 0 0  94 0 0  96 0 0  98 0 0  100 0 0  102 0 0  104 0 0  106 0 0  108 0 0  110 0 0  112 0 0  114 0 0  116 0 0  118 0 0  120 0 0  122 0 0  124 0 0  126 0 0  128 0 0  130 0 0  132 0 0  134 0 0  136 0 0  138 0 0  140 0 0  142 0 0  144 0 0  146 0 0  148 0 0  150 0 0  152 0 0  154 0 0  156 0 0  158 0 0  160 0 0  0 2 0  2 2 0  4 2 0  6 2 0  8 2 0  10 2 0  12 2 0  14 2 0  16 2 0  18 2 0  20 2 0  22 2 0  24 2 0  26 2 0  28 2 0  30 2 0  32 2 0  34 2 0  36 2 0  38 2 0  40 2 0  42 2 0  44 2 0  46 2 0  48 2 0  50 2 0  52 2 0  54 2 0  56 2 0  58 2 0  60 2 0  62 2 0  64 2 0  66 2 0  68 2 0  70 2 0  72 2 0  74 2 0  76 2 0  78 2 0  80 2 0  82 2 0  84 2 0  86 2 0  88 2 0  90 2 0  92 2 0  94 2 0  96 2 0  98 2 0  100 2 0  102 2 0  104 2 0  106 2 0  108 2 0  110 2 0  112 2 0  114 2 0  116 2 0  118 2 0  120 2 0  122 2 0  124 2 0  126 2 0  128 2 0  130 2 0  132 2 0  134 2 0  136 2 0  138 2 0  140 2 0  142 2 0  144 2 0  146 2 0  148 2 0  150 2 0  152 2 0  154 2 0  156 2 0  158 2 0  160 2 0  0 4 0  2 4 0  4 4 0  6 4 0  8 4 0  10 4 0  12 4 0  14 4 0  16 4 0  18 4 0  20 4 0  22 4 0  24 4 0  26 4 0  28 4 0  30 4 0  32 4 0  34 4 0  36 4 0  38 4 0  40 4 0  42 4 0  44 4 0  46 4 0  48 4 0  50 4 0  52 4 0  54 4 0  56 4 0  58 4 0  60 4 0  62 4 0  64 4 0  66 4 0  68 4 0  70 4 0  72 4 0  74 4 0  76 4 0  78 4 0  80 4 0  82 4 0  84 4 0  86 4 0  88 4 0  90 4 0  92 4 0  94 4 0  96 4 0  98 4 0  100 4 0  102 4 0  104 4 0  106 4 0  108 4 0  110 4 0  112 4 0  114 4 0  116 4 0  118 4 0  120 4 0  122 4 0  124 4 0  126 4 0  128 4 0  130 4 0  132 4 0  134 4 0  136 4 0  138 4 0  140 4 0  142 4 0  144 4 0  146 4 0  148 4 0  150 4 0  152 4 0  154 4 0  156 4 0  158 4 0  160 4 0  0 6 0  2 6 0  4 6 0  6 6 0  8 6 0  10 6 0  12 6 0  14 6 0  16 6 0  18 6 0  20 6 0  22 6 0  24 6 0  26 6 0  28 6 0  30 6 0  32 6 0  34 6 0  36 6 0  38 6 0  40 6 0  42 6 0  44 6 0  46 6 0  48 6 0  50 6 0  52 6 0  54 6 0  56 6 0  58 6 0  60 6 0  62 6 0  64 6 0  66 6 0  68 6 0  70 6 0  72 6 0  74 6 0  76 6 0  78 6 0  80 6 0  82 6 0  84 6 0  86 6 0  88 6 0  90 6 0  92 6 0  94 6 0  96 6 0  98 6 0  100 6 0  102 6 0  104 6 0  106 6 0  108 6 0  110 6 0  112 6 0  114 6 0  116 6 0  118 6 0  120 6 0  122 6 0  124 6 0  126 6 0  128 6 0  130 6 0  132 6 0  134 6 0  136 6 0  138 6 0  140 6 0  142 6 0  144 6 0  146 6 0  148 6 0  150 6 0  152 6 0  154 6 0  156 6 0  158 6 0  160 6 0  0 8 0  2 8 0  4 8 0  6 8 0  8 8 0  10 8 0  12 8 0  14 8 0  16 8 0  18 8 0  20 8 0  22 8 0  24 8 0  26 8 0  28 8 0  30 8 0  32 8 0  34 8 0  36 8 0  38 8 0  40 8 0  42 8 0  44 8 0  46 8 0  48 8 0  50 8 0  52 8 0  54 8 0  56 8 0  58 8 0  60 8 0  62 8 0  64 8 0  66 8 0  68 8 0  70 8 0  72 8 0  74 8 0  76 8 0  78 8 0  80 8 0  82 8 0  84 8 0  86 8 0  88 8 0  90 8 0  92 8 0  94 8 0  96 8 0  98 8 0  100 8 0  102 8 0  104 8 0  106 8 0  108 8 0  110 8 0  112 8 0  114 8 0  116 8 0  118 8 0  120 8 0  122 8 0  124 8 0  126 8 0  128 8 0  130 8 0  132 8 0  134 8 0  136 8 0  138 8 0  140 8 0  142 8 0  144 8 0  146 8 0  148 8 0  150 8 0  152 8 0  154 8 0  156 8 0  158 8 0  160 8 0  0 10 0  2 10 0  4 10 0  6 10 0  8 10 0  10 10 0  12 10 0  14 10 0  16 10 0  18 10 0  20 10 0  22 10 0  24 10 0  26 10 0  28 10 0  30 10 0  32 10 0  34 10 0  36 10 0  38 10 0  40 10 0  42 10 0  44 10 0  46 10 0  48 10 0  50 10 0  52 10 0  54 10 0  56 10 0  58 10 0  60 10 0  62 10 0  64 10 0  66 10 0  68 10 0  70 10 0  72 10 0  74 10 0  76 10 0  78 10 0  80 10 0  82 10 0  84 10 0  86 10 0  88 10 0  90 10 0  92 10 0  94 10 0  96 10 0  98 10 0  100 10 0  102 10 0  104 10 0  106 10 0  108 10 0  110 10 0  112 10 0  114 10 0  116 10 0  118 10 0  120 10 0  122 10 0  124 10 0  126 10 0  128 10 0  130 10 0  132 10 0  134 10 0  136 10 0  138 10 0  140 10 0  142 10 0  144 10 0  146 10 0  148 10 0  150 10 0  152 10 0  154 10 0  156 10 0  158 10 0  160 10 0  0 12 0  2 12 0  4 12 0  6 12 0  8 12 0  10 12 0  12 12 0  14 12 0  16 12 0  18 12 0  20 12 0  22 12 0  24 12 0  26 12 0  28 12 0  30 12 0  32 12 0  34 12 0  36 12 0  38 12 0  40 12 0  42 12 0  44 12 0  46 12 0  48 12 0  50 12 0  52 12 0  54 12 0  56 12 0  58 12 0  60 12 0  62 12 0  64 12 0  66 12 0  68 12 0  70 12 0  72 12 0  74 12 0  76 12 0  78 12 0  80 12 0  82 12 0  84 12 0  86 12 0  88 12 0  90 12 0  92 12 0  94 12 0  96 12 0  98 12 0  100 12 0  102 12 0  104 12 0  106 12 0  108 12 0  110 12 0  112 12 0  114 12 0  116 12 0  118 12 0  120 12 0  122 12 0  124 12 0  126 12 0  128 12 0  130 12 0  132 12 0  134 12 0  136 12 0  138 12 0  140 12 0  142 12 0  144 12 0  146 12 0  148 12 0  150 12 0  152 12 0  154 12 0  156 12 0  158 12 0  160 12 0  0 14 0  2 14 0  4 14 0  6 14 0  8 14 0  10 14 0  12 14 0  14 14 0  16 14 0  18 14 0  20 14 0  22 14 0  24 14 0  26 14 0  28 14 0  30 14 0  32 14 0  34 14 0  36 14 0  38 14 0  40 14 0  42 14 0  44 14 0  46 14 0  48 14 0  50 14 0  52 14 0  54 14 0  56 14 0  58 14 0  60 14 0  62 14 0  64 14 0  66 14 0  68 14 0  70 14 0  72 14 0  74 14 0  76 14 0  78 14 0  80 14 0  82 14 0  84 14 0  86 14 0  88 14 0  90 14 0  92 14 0  94 14 0  96 14 0  98 14 0  100 14 0  102 14 0  104 14 0  106 14 0  108 14 0  110 14 0  112 14 0  114 14 0  116 14 0  118 14 0  120 14 0  122 14 0  124 14 0  126 14 0  128 14 0  130 14 0  132 14 0  134 14 0  136 14 0  138 14 0  140 14 0  142 14 0  144 14 0  146 14 0  148 14 0  150 14 0  152 14 0  154 14 0  156 14 0  158 14 0  160 14 0  0 16 0  2 16 0  4 16 0  6 16 0  8 16 0  10 16 0  12 16 0  14 16 0  16 16 0  18 16 0  20 16 0  22 16 0  24 16 0  26 16 0  28 16 0  30 16 0  32 16 0  34 16 0  36 16 0  38 16 0  40 16 0  42 16 0  44 16 0  46 16 0  48 16 0  50 16 0  52 16 0  54 16 0  56 16 0  58 16 0  60 16 0  62 16 0  64 16 0  66 16 0  68 16 0  70 16 0  72 16 0  74 16 0  76 16 0  78 16 0  80 16 0  82 16 0  84 16 0  86 16 0  88 16 0  90 16 0  92 16 0  94 16 0  96 16 0  98 16 0  100 16 0  102 16 0  104 16 0  106 16 0  108 16 0  110 16 0  112 16 0  114 16 0  116 16 0  118 16 0  120 16 0  122 16 0  124 16 0  126 16 0  128 16 0  130 16 0  132 16 0  134 16 0  136 16 0  138 16 0  140 16 0  142 16 0  144 16 0  146 16 0  148 16 0  150 16 0  152 16 0  154 16 0  156 16 0  158 16 0  160 16 0  0 18 0  2 18 0  4 18 0  6 18 0  8 18 0  10 18 0  12 18 0  14 18 0  16 18 0  18 18 0  20 18 0  22 18 0  24 18 0  26 18 0  28 18 0  30 18 0  32 18 0  34 18 0  36 18 0  38 18 0  40 18 0  42 18 0  44 18 0  46 18 0  48 18 0  50 18 0  52 18 0  54 18 0  56 18 0  58 18 0  60 18 0  62 18 0  64 18 0  66 18 0  68 18 0  70 18 0  72 18 0  74 18 0  76 18 0  78 18 0  80 18 0  82 18 0  84 18 0  86 18 0  88 18 0  90 18 0  92 18 0  94 18 0  96 18 0  98 18 0  100 18 0  102 18 0  104 18 0  106 18 0  108 18 0  110 18 0  112 18 0  114 18 0  116 18 0  118 18 0  120 18 0  122 18 0  124 18 0  126 18 0  128 18 0  130 18 0  132 18 0  134 18 0  136 18 0  138 18 0  140 18 0  142 18 0  144 18 0  146 18 0  148 18 0  150 18 0  152 18 0  154 18 0  156 18 0  158 18 0  160 18 0  0 20 0  2 20 0  4 20 0  6 20 0  8 20 0  10 20 0  12 20 0  14 20 0  16 20 0  18 20 0  20 20 0  22 20 0  24 20 0  26 20 0  28 20 0  30 20 0  32 20 0  34 20 0  36 20 0  38 20 0  40 20 0  42 20 0  44 20 0  46 20 0  48 20 0  50 20 0  52 20 0  54 20 0  56 20 0  58 20 0  60 20 0  62 20 0  64 20 0  66 20 0  68 20 0  70 20 0  72 20 0  74 20 0  76 20 0  78 20 0  80 20 0  82 20 0  84 20 0  86 20 0  88 20 0  90 20 0  92 20 0  94 20 0  96 20 0  98 20 0  100 20 0  102 20 0  104 20 0  106 20 0  108 20 0  110 20 0  112 20 0  114 20 0  116 20 0  118 20 0  120 20 0  122 20 0  124 20 0  126 20 0  128 20 0  130 20 0  132 20 0  134 20 0  136 20 0  138 20 0  140 20 0  142 20 0  144 20 0  146 20 0  148 20 0  150 20 0  152 20 0  154 20 0  156 20 0  158 20 0  160 20 0  0 22 0  2 22 0  4 22 0  6 22 0  8 22 0  10 22 0  12 22 0  14 22 0  16 22 0  18 22 0  20 22 0  22 22 0  24 22 0  26 22 0  28 22 0  30 22 0  32 22 0  34 22 0  36 22 0  38 22 0  40 22 0  42 22 0  44 22 0  46 22 0  48 22 0  50 22 0  52 22 0  54 22 0  56 22 0  58 22 0  60 22 0  62 22 0  64 22 0  66 22 0  68 22 0  70 22 0  72 22 0  74 22 0  76 22 0  78 22 0  80 22 0  82 22 0  84 22 0  86 22 0  88 22 0  90 22 0  92 22 0  94 22 0  96 22 0  98 22 0  100 22 0  102 22 0  104 22 0  106 22 0  108 22 0  110 22 0  112 22 0  114 22 0  116 22 0  118 22 0  120 22 0  122 22 0  124 22 0  126 22 0  128 22 0  130 22 0  132 22 0  134 22 0  136 22 0  138 22 0  140 22 0  142 22 0  144 22 0  146 22 0  148 22 0  150 22 0  152 22 0  154 22 0  156 22 0  158 22 0  160 22 0  0 24 0  2 24 0  4 24 0  6 24 0  8 24 0  10 24 0  12 24 0  14 24 0  16 24 0  18 24 0  20 24 0  22 24 0  24 24 0  26 24 0  28 24 0  30 24 0  32 24 0  34 24 0  36 24 0  38 24 0  40 24 0  42 24 0  44 24 0  46 24 0  48 24 0  50 24 0  52 24 0  54 24 0  56 24 0  58 24 0  60 24 0  62 24 0  64 24 0  66 24 0  68 24 0  70 24 0  72 24 0  74 24 0  76 24 0  78 24 0  80 24 0  82 24 0  84 24 0  86 24 0  88 24 0  90 24 0  92 24 0  94 24 0  96 24 0  98 24 0  100 24 0  102 24 0  104 24 0  106 24 0  108 24 0  110 24 0  112 24 0  114 24 0  116 24 0  118 24 0  120 24 0  122 24 0  124 24 0  126 24 0  128 24 0  130 24 0  132 24 0  134 24 0  136 24 0  138 24 0  140 24 0  142 24 0  144 24 0  146 24 0  148 24 0  150 24 0  152 24 0  154 24 0  156 24 0  158 24 0  160 24 0  0 26 0  2 26 0  4 26 0  6 26 0  8 26 0  10 26 0  12 26 0  14 26 0  16 26 0  18 26 0  20 26 0  22 26 0  24 26 0  26 26 0  28 26 0  30 26 0  32 26 0  34 26 0  36 26 0  38 26 0  40 26 0  42 26 0  44 26 0  46 26 0  48 26 0  50 26 0  52 26 0  54 26 0  56 26 0  58 26 0  60 26 0  62 26 0  64 26 0  66 26 0  68 26 0  70 26 0  72 26 0  74 26 0  76 26 0  78 26 0  80 26 0  82 26 
[...]
<PointData  Vectors="displacements"> 
<DataArray  type="Float64"  Name="displacements"  NumberOfComponents="3" format="ascii">0.0000000000000000e+00 0.0000000000000000e+00 0.0000000000000000e+00  -1.7030735788167377e+00 -1.5138373517210151e+00 0.0000000000000000e+00  -3.0182247907584658e+00 -2.5515262535997687e+00 0.0000000000000000e+00  -4.1470706759029605e+00 -3.6317575357806331e+00 0.0000000000000000e+00  -5.1641844457320270e+00 -4.7484869166680665e+00 0.0000000000000000e+00  -6.0893473738927941e+00 -5.9131783781044076e+00 0.0000000000000000e+00  -6.9376412023832179e+00 -7.1185149202526450e+00 0.0000000000000000e+00  -7.7216299216549844e+00 -8.3566033769931529e+00 0.0000000000000000e+00  -8.4538857895486021e+00 -9.6198797752523628e+00 0.0000000000000000e+00  -9.1483433041773488e+00 -1.0903201001516926e+01 0.0000000000000000e+00  -9.8211144525309386e+00 -1.2206109488763930e+01 0.0000000000000000e+00  -1.0490133850249975e+01 -1.3536016087836630e+01 0.0000000000000000e+00  -1.1171691560767266e+01 -1.4911238194619358e+01 0.0000000000000000e+00  -1.1872481480265547e+01 -1.6357987251965444e+01 0.0000000000000000e+00  -1.2584450816472096e+01 -1.7896735968710097e+01 0.0000000000000000e+00  -1.3289553639276143e+01 -1.9524606318611351e+01 0.0000000000000000e+00  -1.3975248294312729e+01 -2.1214701259559320e+01 0.0000000000000000e+00  -1.4641832081547676e+01 -2.2935913565404075e+01 0.0000000000000000e+00  -1.5297271217745871e+01 -2.4669478664432678e+01 0.0000000000000000e+00  -1.5948218043072986e+01 -2.6409394994508894e+01 0.0000000000000000e+00  -1.6597352815641969e+01 -2.8154855325969098e+01 0.0000000000000000e+00  -1.7245161345120831e+01 -2.9905542680596998e+01 0.0000000000000000e+00  -1.7891679092465935e+01 -3.1660771940504354e+01 0.0000000000000000e+00  -1.8536938015146173e+01 -3.3419774856070376e+01 0.0000000000000000e+00  -1.9180969124511730e+01 -3.5181814265044174e+01 0.0000000000000000e+00  -1.9823786393553810e+01 -3.6946172707510414e+01 0.0000000000000000e+00  -2.0465391224284716e+01 -3.8712134405545498e+01 0.0000000000000000e+00  -2.1105780310091408e+01 -4.0478979704364548e+01 0.0000000000000000e+00  -2.1744948784421702e+01 -4.2245985049844492e+01 0.0000000000000000e+00  -2.2382891443330351e+01 -4.4012423290857484e+01 0.0000000000000000e+00  -2.3019603135777938e+01 -4.5777563974379689e+01 0.0000000000000000e+00  -2.3655078934135954e+01 -4.7540673508007046e+01 0.0000000000000000e+00  -2.4289314318955451e+01 -4.9301015255721531e+01 0.0000000000000000e+00  -2.4922305567449147e+01 -5.1057849583134754e+01 0.0000000000000000e+00  -2.5554050632953366e+01 -5.2810433830529092e+01 0.0000000000000000e+00  -2.6184551008391395e+01 -5.4558021858826464e+01 0.0000000000000000e+00  -2.6813815807681141e+01 -5.6299861262690271e+01 0.0000000000000000e+00  -2.7441872871235795e+01 -5.8035178440713473e+01 0.0000000000000000e+00  -2.8068816388052454e+01 -5.9763124024286057e+01 0.0000000000000000e+00  -2.8695014682296417e+01 -6.1482616556521251e+01 0.0000000000000000e+00  -2.9321962872930506e+01 -6.3192158409832210e+01 0.0000000000000000e+00  -2.9954771406152862e+01 -6.4891204168373818e+01 0.0000000000000000e+00  -3.0605082622807252e+01 -6.6586449566921218e+01 0.0000000000000000e+00  -3.1289300310082716e+01 -6.8303486175422165e+01 0.0000000000000000e+00  -3.2017202807380542e+01 -7.0093157732887207e+01 0.0000000000000000e+00  -3.2778420299523383e+01 -7.2019443543677326e+01 0.0000000000000000e+00  -3.3538234502772895e+01 -7.4131954444364254e+01 0.0000000000000000e+00  -3.4248726154639463e+01 -7.6445679820795363e+01 0.0000000000000000e+00  -3.4860897343571864e+01 -7.8938278221708913e+01 0.0000000000000000e+00  -3.5333530803579940e+01 -8.1555240885752568e+01 0.0000000000000000e+00  -3.5639035242635131e+01 -8.4209419613074061e+01 0.0000000000000000e+00  -3.5792044363754655e+01 -8.6814308981314085e+01 0.0000000000000000e+00  -3.5942425045145868e+01 -8.9480980220953015e+01 0.0000000000000000e+00  -3.6119876953486397e+01 -9.2280173804586440e+01 0.0000000000000000e+00  -3.6206359276923664e+01 -9.5051608371119897e+01 0.0000000000000000e+00  -3.6892205366962543e+01 -9.8132460534449294e+01 0.0000000000000000e+00  -3.7779917425319859e+01 -1.0100874712063877e+02 0.0000000000000000e+00  -3.8389903331191732e+01 -1.0422619594396265e+02 0.0000000000000000e+00  -3.8925990753121127e+01 -1.0726803255912851e+02 0.0000000000000000e+00  -3.9413195496567582e+01 -1.1019133164668678e+02 0.0000000000000000e+00  -3.9880880553391250e+01 -1.1304863251462709e+02 0.0000000000000000e+00  -4.0330817364358261e+01 -1.1588330409298547e+02 0.0000000000000000e+00  -4.0750347770759383e+01 -1.1871305685507524e+02 0.0000000000000000e+00  -4.1134551134948126e+01 -1.2154146746809151e+02 0.0000000000000000e+00  -4.1476711962866844e+01 -1.2436718681082473e+02 0.0000000000000000e+00  -4.1772265230517668e+01 -1.2718124358209383e+02 0.0000000000000000e+00  -4.2022397331835805e+01 -1.2997282810947397e+02 0.0000000000000000e+00  -4.2231615682866867e+01 -1.3273479033460671e+02 0.0000000000000000e+00  -4.2404639322416237e+01 -1.3546431044570477e+02 0.0000000000000000e+00  -4.2544733701697069e+01 -1.3816114211008053e+02 0.0000000000000000e+00  -4.2653424504888719e+01 -1.4082538267690043e+02 0.0000000000000000e+00  -4.2731523909427231e+01 -1.4345601758836347e+02 0.0000000000000000e+00  -4.2780341891792276e+01 -1.4605075469048867e+02 0.0000000000000000e+00  -4.2802537121040139e+01 -1.4860668598640495e+02 0.0000000000000000e+00  -4.2802494718611548e+01 -1.5112132246104835e+02 0.0000000000000000e+00  -4.2786266055746403e+01 -1.5359370012443452e+02 0.0000000000000000e+00  -4.2761151479575716e+01 -1.5602539887478818e+02 0.0000000000000000e+00  -4.2734938830805739e+01 -1.5842141816028794e+02 0.0000000000000000e+00  -4.2714659664077224e+01 -1.6079082659044909e+02 0.0000000000000000e+00  -4.2704473143091199e+01 -1.6314678342013084e+02 0.0000000000000000e+00  -4.2702338439061386e+01 -1.6550321498148722e+02 0.0000000000000000e+00  0.0000000000000000e+00 0.0000000000000000e+00 0.0000000000000000e+00  -9.9981055528746876e-01 -9.5028091759363664e-01 0.0000000000000000e+00  -2.1463880782241431e+00 -2.0800815141877558e+00 0.0000000000000000e+00  -3.1867362837232873e+00 -3.1943673982610865e+00 0.0000000000000000e+00  -4.1299400895676648e+00 -4.3513533383792966e+00 0.0000000000000000e+00  -4.9931430007819433e+00 -5.5485649568142170e+00 0.0000000000000000e+00  -5.7899911088265750e+00 -6.7819022593497031e+00 0.0000000000000000e+00  -6.5309017662462647e+00 -8.0435032217823750e+00 0.0000000000000000e+00  -7.2255500938407886e+00 -9.3256276369988385e+00 0.0000000000000000e+00  -7.8835430434020983e+00 -1.0622623678683285e+01 0.0000000000000000e+00  -8.5149966170420353e+00 -1.1933099434087449e+01 0.0000000000000000e+00  -9.1312072785901393e+00 -1.3263269528254954e+01 0.0000000000000000e+00  -9.7449586865464433e+00 -1.4631297493747235e+01 0.0000000000000000e+00  -1.0368030267858202e+01 -1.6068480617437899e+01 0.0000000000000000e+00  -1.1002510515800013e+01 -1.7603941521727844e+01 0.0000000000000000e+00  -1.1642601809298290e+01 -1.9237162078618656e+01 0.0000000000000000e+00  -1.2282143173532381e+01 -2.0934370491407208e+01 0.0000000000000000e+00  -1.2921928664873533e+01 -2.2658676157179912e+01 0.0000000000000000e+00  -1.3563828322942230e+01 -2.4392465880646256e+01 0.0000000000000000e+00  -1.4207183045512844e+01 -2.6132322694678130e+01 0.0000000000000000e+00  -1.4850546101760500e+01 -2.7878086493050329e+01 0.0000000000000000e+00  -1.5493400306294566e+01 -2.9629175585106612e+01 0.0000000000000000e+00  -1.6135724579854962e+01 -3.1384788646661814e+01 0.0000000000000000e+00  -1.6777553297267410e+01 -3.3144158027220165e+01 0.0000000000000000e+00  -1.7418896348204150e+01 -3.4906559961250146e+01 0.0000000000000000e+00  -1.8059751238951680e+01 -3.6671281976344915e+01 0.0000000000000000e+00  -1.8700115631021362e+01 -3.8437608736425112e+01 0.0000000000000000e+00  -1.9339987305890613e+01 -4.0204820777456369e+01 0.0000000000000000e+00  -1.9979364095925121e+01 -4.1972194512170120e+01 0.0000000000000000e+00  -2.0618243846176508e+01 -4.3739002748763866e+01 0.0000000000000000e+00  -2.1256624446996366e+01 -4.5504514978178840e+01 0.0000000000000000e+00  -2.1894503869785687e+01 -4.7267997538424247e+01 0.0000000000000000e+00  -2.2531880218473113e+01 -4.9028713687991548e+01 0.0000000000000000e+00  -2.3168751854912458e+01 -5.0785923587040521e+01 0.0000000000000000e+00  -2.3805117784998622e+01 -5.2538884083418736e+01 0.0000000000000000e+00  -2.4440978896994011e+01 -5.4286847884721290e+01 0.0000000000000000e+00  -2.5076341541718943e+01 -5.6029060030648587e+01 0.0000000000000000e+00  -2.5711225835552316e+01 -5.7764744424884235e+01 0.0000000000000000e+00  -2.6345673056076983e+01 -5.9493054002812528e+01 0.0000000000000000e+00  -2.6979711388063297e+01 -6.1212944401568890e+01 0.0000000000000000e+00  -2.7613058774956642e+01 -6.2922975450582108e+01 0.0000000000000000e+00  -2.8244702762346286e+01 -6.4621576011960812e+01 0.0000000000000000e+00  -2.8874595765988335e+01 -6.6312040399096290e+01 0.0000000000000000e+00  -2.9505742084029052e+01 -6.8017057054008617e+01 0.0000000000000000e+00  -3.0140948766426543e+01 -6.9792307060711437e+01 0.0000000000000000e+00  -3.0772747762443519e+01 -7.1713040225090666e+01 0.0000000000000000e+00  -3.1383167015690617e+01 -7.3837043415887806e+01 0.0000000000000000e+00  -3.1948200019392374e+01 -7.6179775041512997e+01 0.0000000000000000e+00  -3.2446710012547356e+01 -7.8716290341102948e+01 0.0000000000000000e+00  -3.2860931667357150e+01 -8.1388793356436778e+01 0.0000000000000000e+00  -3.3176114819567829e+01 -8.4112929873975972e+01 0.0000000000000000e+00  -3.3372003991108159e+01 -8.6768657531892160e+01 0.0000000000000000e+00  -3.3558408432999933e+01 -8.9448619999840929e+01 0.0000000000000000e+00  -3.3810071416754298e+01 -9.2283372107786320e+01 0.0000000000000000e+00  -3.4149083870536998e+01 -9.5182365411762930e+01 0.0000000000000000e+00  -3.4483212342648564e+01 -9.8027699956564007e+01 0.0000000000000000e+00  -3.4607508302361232e+01 -1.0068080071877432e+02 0.0000000000000000e+00  -3.5401079636636574e+01 -1.0396353302970199e+02 0.0000000000000000e+00  -3.6012349696459680e+01 -1.0705177482141117e+02 0.0000000000000000e+00  -3.6558774466683438e+01 -1.0997441249399704e+02 0.0000000000000000e+00  -3.7074424882573254e+01 -1.1284312918412270e+02 0.0000000000000000e+00  -3.7537082392034463e+01 -1.1569512473765053e+02 0.0000000000000000e+00  -3.7964275255806712e+01 -1.1853719783006261e+02 0.0000000000000000e+00  -3.8357217526884689e+01 -1.2138209741536892e+02 0.0000000000000000e+00  -3.8709696105256043e+01 -1.2422758208339403e+02 0.0000000000000000e+00  -3.9021080495576633e+01 -1.2706116313243621e+02 0.0000000000000000e+00  -3.9293117063915282e+01 -1.2987049717154017e+02 0.0000000000000000e+00  -3.9528701217092369e+01 -1.3264792581026478e+02 0.0000000000000000e+00  -3.9731032783582016e+01 -1.3539127142642116e+02 0.0000000000000000e+00  -3.9901971825212058e+01 -1.3810132447375548e+02 0.0000000000000000e+00  -4.0042502880895874e+01 -1.4077864017991445e+02 0.0000000000000000e+00  -4.0153538153447194e+01 -1.4342211534540465e+02 0.0000000000000000e+00  -4.0236533548245156e+01 -1.4602898992098173e+02 0.0000000000000000e+00  -4.0293897545096989e+01 -1.4859569645721120e+02 0.0000000000000000e+00  -4.0329125043551244e+01 -1.5111907080536216e+02 0.0000000000000000e+00  -4.0346687519797896e+01 -1.5359758680826118e+02 0.0000000000000000e+00  -4.0351715846581399e+01 -1.5603247018627238e+02 0.0000000000000000e+00  -4.0349515252795619e+01 -1.5842865904906478e+02 0.0000000000000000e+00  -4.0344960417944428e+01 -1.6079556497223294e+02 0.0000000000000000e+00  -4.0341930334102535e+01 -1.6314727296044668e+02 0.0000000000000000e+00  -4.0342363584920570e+01 -1.6550107223610058e+02 0.0000000000000000e+00  0.0000000000000000e+00 0.0000000000000000e+00 0.0000000000000000e+00  -7.6371988675417690e-01 -7.0240329084765840e-01 0.0000000000000000e+00  -1.6095719514510012e+00 -1.7013444158475874e+00 0.0000000000000000e+00  -2.4721028671644003e+00 -2.8277761244262707e+00 0.0000000000000000e+00  -3.2898907131719697e+00 -4.0038158188433872e+00 0.0000000000000000e+00  -4.0585397124981464e+00 -5.2237954879561244e+00 0.0000000000000000e+00  -4.7775141401299086e+00 -6.4794698624852645e+00 0.0000000000000000e+00  -5.4513190756024921e+00 -7.7613128507221179e+00 0.0000000000000000e+00  -6.0847259588337126e+00 -9.0615985136450128e+00 0.0000000000000000e+00  -6.6815451194002931e+00 -1.0374452478946406e+01 0.0000000000000000e+00  -7.2460690835025359e+00 -1.1697048366554851e+01 0.0000000000000000e+00  -7.7845654799790767e+00 -1.3032275582753241e+01 0.0000000000000000e+00  -8.3088195196749872e+00 -1.4392435899804846e+01 0.0000000000000000e+00  -8.8405020448310232e+00 -1.5807479427056265e+01 0.0000000000000000e+00  -9.4015180531676794e+00 -1.7329733677804498e+01 0.0000000000000000e+00  -9.9835278478806746e+00 -1.8969673879489271e+01 0.0000000000000000e+00  -1.0582562670451249e+01 -2.0671713920494600e+01 0.0000000000000000e+00  -1.1200045848019242e+01 -2.2391355546585711e+01 0.0000000000000000e+00  -1.1831249327702544e+01 -2.4119802250833782e+01 0.0000000000000000e+00  -1.2467617540192037e+01 -2.5857991623659938e+01 0.0000000000000000e+00  -1.3105091096397643e+01 -2.7603649107871153e+01 0.0000000000000000e+00  -1.3742882543585287e+01 -2.9354814924131457e+01 0.0000000000000000e+00  -1.4380974697721381e+01 -3.1110460349957343e+01 0.0000000000000000e+00  -1.5019365249591067e+01 -3.2869857982831974e+01 0.0000000000000000e+00  -1.5658016456444404e+01 -3.4632302724892781e+01 0.0000000000000000e+00  -1.6296909835857083e+01 -3.6397075332917915e+01 0.0000000000000000e+00  -1.6936037291678993e+01 -3.8163456493033493e+01 0.0000000000000000e+00  -1.7575396262334962e+01 -3.9930724494648032e+01 0.0000000000000000e+00  -1.8214986442804030e+01 -4.1698154913767382e+01 0.0000000000000000e+00  -1.8854808345351465e+01 -4.3465020263858115e+01 0.0000000000000000e+00  -1.9494862703669384e+01 -4.5230589975186106e+01 0.0000000000000000e+00  -2.0135150181312831e+01 -4.6994130467694866e+01 0.0000000000000000e+00  -2.0775671079608333e+01 -4.8754905283713953e+01 0.0000000000000000e+00  -2.1416424776557996e+01 -5.0512175288634296e+01 0.0000000000000000e+00  -2.2057408403734115e+01 -5.2265199007475744e+01 0.0000000000000000e+00  -2.2698613553229745e+01 -5.4013233236808134e+01 0.0000000000000000e+00  -2.3340017439613710e+01 -5.5755534913801306e+01 0.0000000000000000e+00  -2.3981555987621224e+01 -5.7491367968310861e+01 0.0000000000000000e+00  -2.4623036441531543e+01 -5.9220038778583337e+01 0.0000000000000000e+00  -2.5263843696357007e+01 -6.0941005885542388e+01 0.0000000000000000e+00  -2.5902151622319945e+01 -6.2654286543350963e+01 0.0000000000000000e+00  -2.6532628814106150e+01 -6.4360613733173508e+01 0.0000000000000000e+00  -2.7144120293835108e+01 -6.6059168969876197e+01 0.0000000000000000e+00  -2.7728609424168720e+01 -6.7760581973210108e+01 0.0000000000000000e+00  -2.8289006598518192e+01 -6.9519091639145344e+01 0.0000000000000000e+00  -2.8829269934367019e+01 -7.1432727553396617e+01 0.0000000000000000e+00  -2.9335423388787436e+01 -7.3569407797466724e+01 0.0000000000000000e+00  -2.9805019526254004e+01 -7.5935537494777321e+01 0.0000000000000000e+00  -3.0232093118600293e+01 -7.8505863790852516e+01 0.0000000000000000e+00  -3.0610642633628721e+01 -8.1221182710605774e+01 0.0000000000000000e+00  -3.0940425462910571e+01 -8.3997307074583205e+01 0.0000000000000000e+00  -3.1222799043065788e+01 -8.6738429594093546e+01 0.0000000000000000e+00  -3.1472780362782022e+01 -8.9475825023058377e+01 0.0000000000000000e+00  -3.1764430160774051e+01 -9.2346204849544165e+01 0.0000000000000000e+00  -3.2059410624769825e+01 -9.5203330905299765e+01 0.0000000000000000e+00  -3.2298149297097567e+01 -9.8002507179356698e+01 0.0000000000000000e+00  -3.2486491203513587e+01 -1.0083122611095379e+02 0.0000000000000000e+00  -3.2634473703209771e+01 -1.0373314143769419e+02 0.0000000000000000e+00  -3.3241108914747713e+01 -1.0685662213640622e+02 0.0000000000000000e+00  -3.3861840541269615e+01 -1.0971968514341580e+02 0.0000000000000000e+00  -3.4364530862290003e+01 -1.1264879384917008e+02 0.0000000000000000e+00  -3.4823310316402974e+01 -1.1550072718474729e+02 0.0000000000000000e+00  -3.5269396764537142e+01 -1.1835048371376890e+02 0.0000000000000000e+00  -3.5673346651390418e+01 -1.2121553834277391e+02 0.0000000000000000e+00  -3.6038382226370622e+01 -1.2408170533184069e+02 0.0000000000000000e+00  -3.6364465213905532e+01 -1.2693636486983387e+02 0.0000000000000000e+00  -3.6651928205397866e+01 -1.2976279793045055e+02 0.0000000000000000e+00  -3.6907720552992174e+01 -1.3255271436884090e+02 0.0000000000000000e+00  -3.7134905218088832e+01 -1.3530735733417751e+02 0.0000000000000000e+00  -3.7333552694483714e+01 -1.3802931560528415e+02 0.0000000000000000e+00  -3.7503009254286113e+01 -1.4071950011840840e+02 0.0000000000000000e+00  -3.7642974008234233e+01 -1.4337639263918706e+02 0.0000000000000000e+00  -3.7754106670672449e+01 -1.4599646138000008e+02 0.0000000000000000e+00  -3.7838167684615023e+01 -1.4857530444703247e+02 0.0000000000000000e+00  -3.7897967166863488e+01 -1.5110900939673883e+02 0.0000000000000000e+00  -3.7937157216853386e+01 -1.5359546260996441e+02 0.0000000000000000e+00  -3.7959965516554419e+01 -1.5603543911226768e+02 0.0000000000000000e+00  -3.7970985760081120e+01 -1.5843348006142014e+02 0.0000000000000000e+00  -3.7975071295643737e+01 -1.6079857133397206e+02 0.0000000000000000e+00  -3.7977223286119852e+01 -1.6314447899911471e+02 0.0000000000000000e+00  -3.7981837629002129e+01 -1.6549072283325401e+02 0.0000000000000000e+00  0.0000000000000000e+00 0.0000000000000000e+00 0.0000000000000000e+00  -5.9042674487190960e-01 -5.3533169409642678e-01 0.0000000000000000e+00  -1.2471512858308913e+00 -1.4611047856461099e+00 0.0000000000000000e+00  -1.9189475405288114e+00 -2.5564022381042903e+00 0.0000000000000000e+00  -2.5982147960404522e+00 -3.7247975676282818e+00 0.0000000000000000e+00  -3.2521643877510331e+00 -4.9568288413325847e+00 0.0000000000000000e+00  -3.8748100145022546e+00 -6.2263308981169345e+00 0.0000000000000000e+00  -4.4677172610371017e+00 -7.5234839293092683e+00 0.0000000000000000e+00  -5.0272604200142528e+00 -8.8413123420724524e+00 0.0000000000000000e+00  -5.5517702449041417e+00 -1.0172337799381413e+01 0.0000000000000000e+00  -6.0397773830278991e+00 -1.1512222363862897e+01 0.0000000000000000e+00  -6.4901151260424914e+00 -1.2859549301092757e+01 0.0000000000000000e+00  -6.9058454204609694e+00 -1.4216969696367030e+01 0.0000000000000000e+00  -7.3023766301816035e+00 -1.5599779822162262e+01 0.0000000000000000e+00  -7.7122494559525601e+00 -1.7083001745548803e+01 0.0000000000000000e+00  -8.2259434367557436e+00 -1.8711204341564756e+01 0.0000000000000000e+00  -8.8289172469929653e+00 -2.0410522749327431e+01 0.0000000000000000e+00  -9.4621486547356017e+00 -2.2123581591666735e+01 0.0000000000000000e+00  -1.0095273861398661e+01 -2.3847923024966232e+01 0.0000000000000000e+00  -1.0727083984262521e+01 -2.5585966769382193e+01 0.0000000000000000e+00  -1.1358835384487278e+01 -2.7331617112316419e+01 0.0000000000000000e+00  -1.1991616965451678e+01 -2.9082459527821317e+01 0.0000000000000000e+00  -1.2625593879946859e+01 -3.0837756544996271e+01 0.0000000000000000e+00  -1.3260595196535650e+01 -3.2596863441770971e+01 0.0000000000000000e+00  -1.3896573105245698e+01 -3.4359037316496938e+01 0.0000000000000000e+00  -1.4533509990200351e+01 -3.6123550450629367e+01 0.0000000000000000e+00  -1.5171400608826136e+01 -3.7889676134205011e+01 0.0000000000000000e+00  -1.5810245302527862e+01 -3.9656689591433960e+01 0.0000000000000000e+00  -1.6450046782119657e+01 -4.1423865096756160e+01 0.0000000000000000e+00  -1.7090808647590098e+01 -4.3190474728835866e+01 0.0000000000000000e+00  -1.7732534695062483e+01 -4.4955787866601931e+01 0.0000000000000000e+00  -1.8375228507062861e+01 -4.6719071149677987e+01 0.0000000000000000e+00  -1.9018893042586388e+01 -4.8479588726363872e+01 0.0000000000000000e+00  -1.9663529