<?xml version="1.0"?>
<VTKFile type="UnstructuredGrid"  version="0.1"  >
<UnstructuredGrid>
<Piece  NumberOfPoints="2501" NumberOfCells="2400">
<Points>
<DataArray  type="Float64"  NumberOfComponents="3"  format="ascii">0 0 0  0.001 0 0  0.002 0 0  0.003 0 0  0.004 0 0  0.005 0 0  0.006 0 0  0.007 0 0  0.008 0 0  0.009000000000000001 0 0  0.01 0 0  0.011 0 0  0.012 0 0  0.013 0 0  0.014 0 0  0.015 0 0  0.016 0 0  0.017 0 0  0.018 0 0  0.019 0 0  0.02 0 0  0.021 0 0  0.022 0 0  0.023 0 0  0.024 0 0  0.025 0 0  0.026 0 0  0.027 0 0  0.028 0 0  0.029 0 0  0.03 0 0  0.031 0 0  0.032 0 0  0.033 0 0  0.034 0 0  0.035 0 0  0.036 0 0  0.037 0 0  0.038 0 0  0.039 0 0  0.04 0 0  0.041 0 0  0.042 0 0  0.043 0 0  0.044 0 0  0.045 0 0  0.046 0 0  0.047 0 0  0.048 0 0  0.049 0 0  0.05 0 0  0.051 0 0  0.052 0 0  0.053 0 0  0.054 0 0  0.055 0 0  0.056 0 0  0.057 0 0  0.058 0 0  0.059 0 0  0.05999999999999999 0 0  0 0.001 0  0.001 0.001 0  0.002 0.001 0  0.003 0.001 0  0.004 0.001 0  0.005 0.001 0  0.006 0.001 0  0.007 0.001 0  0.008 0.001 0  0.009000000000000001 0.001 0  0.01 0.001 0  0.011 0.001 0  0.012 0.001 0  0.013 0.001 0  0.014 0.001 0  0.015 0.001 0  0.016 0.001 0  0.017 0.001 0  0.018 0.001 0  0.019 0.001 0  0.02 0.001 0  0.021 0.001 0  0.022 0.001 0  0.023 0.001 0  0.024 0.001 0  0.025 0.001 0  0.026 0.001 0  0.027 0.001 0  0.028 0.001 0  0.029 0.001 0  0.03 0.001 0  0.031 0.001 0  0.032 0.001 0  0.033 0.001 0  0.034 0.001 0  0.035 0.001 0  0.036 0.001 0  0.037 0.001 0  0.038 0.001 0  0.039 0.001 0  0.04 0.001 0  0.041 0.001 0  0.042 0.001 0  0.043 0.001 0  0.044 0.001 0  0.045 0.001 0  0.046 0.001 0  0.047 0.001 0  0.048 0.001 0  0.049 0.001 0  0.05 0.001 0  0.051 0.001 0  0.052 0.001 0  0.053 0.001 0  0.054 0.001 0  0.055 0.001 0  0.056 0.001 0  0.057 0.001 0  0.058 0.001 0  0.059 0.001 0  0.05999999999999999 0.001 0  0 0.002 0  0.001 0.002 0  0.002 0.002 0  0.003 0.002 0  0.004 0.002 0  0.005 0.002 0  0.006 0.002 0  0.007 0.002 0  0.008 0.002 0  0.009000000000000001 0.002 0  0.01 0.002 0  0.011 0.002 0  0.012 0.002 0  0.013 0.002 0  0.014 0.002 0  0.015 0.002 0  0.016 0.002 0  0.017 0.002 0  0.018 0.002 0  0.019 0.002 0  0.02 0.002 0  0.021 0.002 0  0.022 0.002 0  0.023 0.002 0  0.024 0.002 0  0.025 0.002 0  0.026 0.002 0  0.027 0.002 0  0.028 0.002 0  0.029 0.002 0  0.03 0.002 0  0.031 0.002 0  0.032 0.002 0  0.033 0.002 0  0.034 0.002 0  0.035 0.002 0  0.036 0.002 0  0.037 0.002 0  0.038 0.002 0  0.039 0.002 0  0.04 0.002 0  0.041 0.002 0  0.042 0.002 0  0.043 0.002 0  0.044 0.002 0  0.045 0.002 0  0.046 0.002 0  0.047 0.002 0  0.048 0.002 0  0.049 0.002 0  0.05 0.002 0  0.051 0.002 0  0.052 0.002 0  0.053 0.002 0  0.054 0.002 0  0.055 0.002 0  0.056 0.002 0  0.057 0.002 0  0.058 0.002 0  0.059 0.002 0  0.05999999999999999 0.002 0  0 0.003 0  0.001 0.003 0  0.002 0.003 0  0.003 0.003 0  0.004 0.003 0  0.005 0.003 0  0.006 0.003 0  0.007 0.003 0  0.008 0.003 0  0.009000000000000001 0.003 0  0.01 0.003 0  0.011 0.003 0  0.012 0.003 0  0.013 0.003 0  0.014 0.003 0  0.015 0.003 0  0.016 0.003 0  0.017 0.003 0  0.018 0.003 0  0.019 0.003 0  0.02 0.003 0  0.021 0.003 0  0.022 0.003 0  0.023 0.003 0  0.024 0.003 0  0.025 0.003 0  0.026 0.003 0  0.027 0.003 0  0.028 0.003 0  0.029 0.003 0  0.03 0.003 0  0.031 0.003 0  0.032 0.003 0  0.033 0.003 0  0.034 0.003 0  0.035 0.003 0  0.036 0.003 0  0.037 0.003 0  0.038 0.003 0  0.039 0.003 0  0.04 0.003 0  0.041 0.003 0  0.042 0.003 0  0.043 0.003 0  0.044 0.003 0  0.045 0.003 0  0.046 0.003 0  0.047 0.003 0  0.048 0.003 0  0.049 0.003 0  0.05 0.003 0  0.051 0.003 0  0.052 0.003 0  0.053 0.003 0  0.054 0.003 0  0.055 0.003 0  0.056 0.003 0  0.057 0.003 0  0.058 0.003 0  0.059 0.003 0  0.05999999999999999 0.003 0  0 0.004 0  0.001 0.004 0  0.002 0.004 0  0.003 0.004 0  0.004 0.004 0  0.005 0.004 0  0.006 0.004 0  0.007 0.004 0  0.008 0.004 0  0.009000000000000001 0.004 0  0.01 0.004 0  0.011 0.004 0  0.012 0.004 0  0.013 0.004 0  0.014 0.004 0  0.015 0.004 0  0.016 0.004 0  0.017 0.004 0  0.018 0.004 0  0.019 0.004 0  0.02 0.004 0  0.021 0.004 0  0.022 0.004 0  0.023 0.004 0  0.024 0.004 0  0.025 0.004 0  0.026 0.004 0  0.027 0.004 0  0.028 0.004 0  0.029 0.004 0  0.03 0.004 0  0.031 0.004 0  0.032 0.004 0  0.033 0.004 0  0.034 0.004 0  0.035 0.004 0  0.036 0.004 0  0.037 0.004 0  0.038 0.004 0  0.039 0.004 0  0.04 0.004 0  0.041 0.004 0  0.042 0.004 0  0.043 0.004 0  0.044 0.004 0  0.045 0.004 0  0.046 0.004 0  0.047 0.004 0  0.048 0.004 0  0.049 0.004 0  0.05 0.004 0  0.051 0.004 0  0.052 0.004 0  0.053 0.004 0  0.054 0.004 0  0.055 0.004 0  0.056 0.004 0  0.057 0.004 0  0.058 0.004 0  0.059 0.004 0  0.05999999999999999 0.004 0  0 0.005 0  0.001 0.005 0  0.002 0.005 0  0.003 0.005 0  0.004 0.005 0  0.005 0.005 0  0.006 0.005 0  0.007 0.005 0  0.008 0.005 0  0.009000000000000001 0.005 0  0.01 0.005 0  0.011 0.005 0  0.012 0.005 0  0.013 0.005 0  0.014 0.005 0  0.015 0.005 0  0.016 0.005 0  0.017 0.005 0  0.018 0.005 0  0.019 0.005 0  0.02 0.005 0  0.021 0.005 0  0.022 0.005 0  0.023 0.005 0  0.024 0.005 0  0.025 0.005 0  0.026 0.005 0  0.027 0.005 0  0.028 0.005 0  0.029 0.005 0  0.03 0.005 0  0.031 0.005 0  0.032 0.005 0  0.033 0.005 0  0.034 0.005 0  0.035 0.005 0  0.036 0.005 0  0.037 0.005 0  0.038 0.005 0  0.039 0.005 0  0.04 0.005 0  0.041 0.005 0  0.042 0.005 0  0.043 0.005 0  0.044 0.005 0  0.045 0.005 0  0.046 0.005 0  0.047 0.005 0  0.048 0.005 0  0.049 0.005 0  0.05 0.005 0  0.051 0.005 0  0.052 0.005 0  0.053 0.005 0  0.054 0.005 0  0.055 0.005 0  0.056 0.005 0  0.057 0.005 0  0.058 0.005 0  0.059 0.005 0  0.05999999999999999 0.005 0  0 0.006 0  0.001 0.006 0  0.002 0.006 0  0.003 0.006 0  0.004 0.006 0  0.005 0.006 0  0.006 0.006 0  0.007 0.006 0  0.008 0.006 0  0.009000000000000001 0.006 0  0.01 0.006 0  0.011 0.006 0  0.012 0.006 0  0.013 0.006 0  0.014 0.006 0  0.015 0.006 0  0.016 0.006 0  0.017 0.006 0  0.018 0.006 0  0.019 0.006 0  0.02 0.006 0  0.021 0.006 0  0.022 0.006 0  0.023 0.006 0  0.024 0.006 0  0.025 0.006 0  0.026 0.006 0  0.027 0.006 0  0.028 0.006 0  0.029 0.006 0  0.03 0.006 0  0.031 0.006 0  0.032 0.006 0  0.033 0.006 0  0.034 0.006 0  0.035 0.006 0  0.036 0.006 0  0.037 0.006 0  0.038 0.006 0  0.039 0.006 0  0.04 0.006 0  0.041 0.006 0  0.042 0.006 0  0.043 0.006 0  0.044 0.006 0  0.045 0.006 0  0.046 0.006 0  0.047 0.006 0  0.048 0.006 0  0.049 0.006 0  0.05 0.006 0  0.051 0.006 0  0.052 0.006 0  0.053 0.006 0  0.054 0.006 0  0.055 0.006 0  0.056 0.006 0  0.057 0.006 0  0.058 0.006 0  0.059 0.006 0  0.05999999999999999 0.006 0  0 0.007000000000000001 0  0.001 0.007000000000000001 0  0.002 0.007000000000000001 0  0.003 0.007000000000000001 0  0.004 0.007000000000000001 0  0.005 0.007000000000000001 0  0.006 0.007000000000000001 0  0.007 0.007000000000000001 0  0.008 0.007000000000000001 0  0.009000000000000001 0.007000000000000001 0  0.01 0.007000000000000001 0  0.011 0.007000000000000001 0  0.012 0.007000000000000001 0  0.013 0.007000000000000001 0  0.014 0.007000000000000001 0  0.015 0.007000000000000001 0  0.016 0.007000000000000001 0  0.017 0.007000000000000001 0  0.018 0.007000000000000001 0  0.019 0.007000000000000001 0  0.02 0.007000000000000001 0  0.021 0.007000000000000001 0  0.022 0.007000000000000001 0  0.023 0.007000000000000001 0  0.024 0.007000000000000001 0  0.025 0.007000000000000001 0  0.026 0.007000000000000001 0  0.027 0.007000000000000001 0  0.028 0.007000000000000001 0  0.029 0.007000000000000001 0  0.03 0.007000000000000001 0  0.031 0.007000000000000001 0  0.032 0.007000000000000001 0  0.033 0.007000000000000001 0  0.034 0.007000000000000001 0  0.035 0.007000000000000001 0  0.036 0.007000000000000001 0  0.037 0.007000000000000001 0  0.038 0.007000000000000001 0  0.039 0.007000000000000001 0  0.04 0.007000000000000001 0  0.041 0.007000000000000001 0  0.042 0.007000000000000001 0  0.043 0.007000000000000001 0  0.044 0.007000000000000001 0  0.045 0.007000000000000001 0  0.046 0.007000000000000001 0  0.047 0.007000000000000001 0  0.048 0.007000000000000001 0  0.049 0.007000000000000001 0  0.05 0.007000000000000001 0  0.051 0.007000000000000001 0  0.052 0.007000000000000001 0  0.053 0.007000000000000001 0  0.054 0.007000000000000001 0  0.055 0.007000000000000001 0  0.056 0.007000000000000001 0  0.057 0.007000000000000001 0  0.058 0.007000000000000001 0  0.059 0.007000000000000001 0  0.05999999999999999 0.007000000000000001 0  0 0.008 0  0.001 0.008 0  0.002 0.008 0  0.003 0.008 0  0.004 0.008 0  0.005 0.008 0  0.006 0.008 0  0.007 0.008 0  0.008 0.008 0  0.009000000000000001 0.008 0  0.01 0.008 0  0.011 0.008 0  0.012 0.008 0  0.013 0.008 0  0.014 0.008 0  0.015 0.008 0  0.016 0.008 0  0.017 0.008 0  0.018 0.008 0  0.019 0.008 0  0.02 0.008 0  0.021 0.008 0  0.022 0.008 0  0.023 0.008 0  0.024 0.008 0  0.025 0.008 0  0.026 0.008 0  0.027 0.008 0  0.028 0.008 0  0.029 0.008 0  0.03 0.008 0  0.031 0.008 0  0.032 0.008 0  0.033 0.008 0  0.034 0.008 0  0.035 0.008 0  0.036 0.008 0  0.037 0.008 0  0.038 0.008 0  0.039 0.008 0  0.04 0.008 0  0.041 0.008 0  0.042 0.008 0  0.043 0.008 0  0.044 0.008 0  0.045 0.008 0  0.046 0.008 0  0.047 0.008 0  0.048 0.008 0  0.049 0.008 0  0.05 0.008 0  0.051 0.008 0  0.052 0.008 0  0.053 0.008 0  0.054 0.008 0  0.055 0.008 0  0.056 0.008 0  0.057 0.008 0  0.058 0.008 0  0.059 0.008 0  0.05999999999999999 0.008 0  0 0.008999999999999999 0  0.001 0.008999999999999999 0  0.002 0.008999999999999999 0  0.003 0.008999999999999999 0  0.004 0.008999999999999999 0  0.005 0.008999999999999999 0  0.006 0.008999999999999999 0  0.007 0.008999999999999999 0  0.008 0.008999999999999999 0  0.009000000000000001 0.008999999999999999 0  0.01 0.008999999999999999 0  0.011 0.008999999999999999 0  0.012 0.008999999999999999 0  0.013 0.008999999999999999 0  0.014 0.008999999999999999 0  0.015 0.008999999999999999 0  0.016 0.008999999999999999 0  0.017 0.008999999999999999 0  0.018 0.008999999999999999 0  0.019 0.008999999999999999 0  0.02 0.008999999999999999 0  0.021 0.008999999999999999 0  0.022 0.00899999999999999
[...]
<PointData  Vectors="displacements"> 
<DataArray  type="Float64"  Name="displacements"  NumberOfComponents="3" format="ascii">0.0000000000000000e+00 0.0000000000000000e+00 0.0000000000000000e+00  -6.5628732426326053e-07 -1.3272946040032707e-06 0.0000000000000000e+00  -9.2482978120145276e-07 -2.1162986134637407e-06 0.0000000000000000e+00  -1.0319693592997226e-06 -2.7738226966445012e-06 0.0000000000000000e+00  -1.0710651834333618e-06 -3.3158503938146566e-06 0.0000000000000000e+00  -1.0709086386562205e-06 -3.7779921879810274e-06 0.0000000000000000e+00  -1.0469956903680355e-06 -4.1767312046747662e-06 0.0000000000000000e+00  -1.0080332704109907e-06 -4.5239060242341367e-06 0.0000000000000000e+00  -9.5964295110384512e-07 -4.8279095810066508e-06 0.0000000000000000e+00  -9.0562371446445411e-07 -5.0951931291898234e-06 0.0000000000000000e+00  -8.4864352278835042e-07 -5.3308940557439399e-06 0.0000000000000000e+00  -7.9061244084854820e-07 -5.5392347468874448e-06 0.0000000000000000e+00  -7.3291011060128142e-07 -5.7237652679731355e-06 0.0000000000000000e+00  -6.7653084578900291e-07 -5.8875248722944917e-06 0.0000000000000000e+00  -6.2218102847566570e-07 -6.0331537001800939e-06 0.0000000000000000e+00  -5.7034698830449315e-07 -6.1629738106194765e-06 0.0000000000000000e+00  -5.2134389050273455e-07 -6.2790507349141933e-06 0.0000000000000000e+00  -4.7535192915226787e-07 -6.3832428662813356e-06 0.0000000000000000e+00  -4.3244376812801022e-07 -6.4772439352100974e-06 0.0000000000000000e+00  -3.9260576034649830e-07 -6.5626230008053454e-06 0.0000000000000000e+00  -3.5575465040516008e-07 -6.6408667298567536e-06 0.0000000000000000e+00  -3.2175085662444758e-07 -6.7134303305405041e-06 0.0000000000000000e+00  -2.9040932836288391e-07 -6.7818087883253497e-06 0.0000000000000000e+00  -2.6150692056248204e-07 -6.8476469745615276e-06 0.0000000000000000e+00  -2.3479148314464737e-07 -6.9129590292149601e-06 0.0000000000000000e+00  -2.0993492744203479e-07 -6.9804794238237378e-06 0.0000000000000000e+00  -1.8652751609948837e-07 -7.0552591577843771e-06 0.0000000000000000e+00  -1.6180969986123728e-07 -7.1447304539340450e-06 0.0000000000000000e+00  -1.2525971526677893e-07 -7.2974328162445090e-06 0.0000000000000000e+00  -6.8790763307902125e-08 -7.4314662386054664e-06 0.0000000000000000e+00  -2.4646951146678475e-14 -7.4622004211377657e-06 0.0000000000000000e+00  6.8790714791155949e-08 -7.4314662468211168e-06 0.0000000000000000e+00  1.2525966719412196e-07 -7.2974328308994529e-06 0.0000000000000000e+00  1.6180965201062492e-07 -7.1447304770266840e-06 0.0000000000000000e+00  1.8652746947012133e-07 -7.0552591888706218e-06 0.0000000000000000e+00  2.0993488414333683e-07 -6.9804794637917666e-06 0.0000000000000000e+00  2.3479144284355158e-07 -6.9129590734018365e-06 0.0000000000000000e+00  2.6150688325898841e-07 -6.8476470242995191e-06 0.0000000000000000e+00  2.9040929472312627e-07 -6.7818088429483225e-06 0.0000000000000000e+00  3.2175082664842591e-07 -6.7134303887161906e-06 0.0000000000000000e+00  3.5575462387082979e-07 -6.6408667918071984e-06 0.0000000000000000e+00  3.9260573780897090e-07 -6.5626230669746377e-06 0.0000000000000000e+00  4.3244375047546413e-07 -6.4772440047100588e-06 0.0000000000000000e+00  4.7535191682879230e-07 -6.3832429377796984e-06 0.0000000000000000e+00  5.2134388239810647e-07 -6.2790508068566453e-06 0.0000000000000000e+00  5.7034698486280178e-07 -6.1629738838941961e-06 0.0000000000000000e+00  6.2218102936384412e-07 -6.0331537738989027e-06 0.0000000000000000e+00  6.7653085100705113e-07 -5.8875249453471667e-06 0.0000000000000000e+00  7.3291011948306561e-07 -5.7237653390274090e-06 0.0000000000000000e+00  7.9061245306100147e-07 -5.5392348150551385e-06 0.0000000000000000e+00  8.4864353866453968e-07 -5.3308941216911876e-06 0.0000000000000000e+00  9.0562373356029013e-07 -5.0951931898080005e-06 0.0000000000000000e+00  9.5964297186501568e-07 -4.8279096354075790e-06 0.0000000000000000e+00  1.0080332915052281e-06 -4.5239060735280390e-06 0.0000000000000000e+00  1.0469957121284068e-06 -4.1767312484175534e-06 0.0000000000000000e+00  1.0709086598614803e-06 -3.7779922255065657e-06 0.0000000000000000e+00  1.0710652029732870e-06 -3.3158504255670351e-06 0.0000000000000000e+00  1.0319693759530679e-06 -2.7738227226237200e-06 0.0000000000000000e+00  9.2482979474617366e-07 -2.1162986318934429e-06 0.0000000000000000e+00  6.5628733270095552e-07 -1.3272946144393671e-06 0.0000000000000000e+00  0.0000000000000000e+00 0.0000000000000000e+00 0.0000000000000000e+00  0.0000000000000000e+00 0.0000000000000000e+00 0.0000000000000000e+00  -1.2159125928334902e-07 -8.8966318445571346e-07 0.0000000000000000e+00  -3.6258110158726709e-07 -1.7558869147560330e-06 0.0000000000000000e+00  -5.2412396533974004e-07 -2.4321476697064526e-06 0.0000000000000000e+00  -6.2140544354605254e-07 -2.9943335704274432e-06 0.0000000000000000e+00  -6.7386130386815069e-07 -3.4690316834673496e-06 0.0000000000000000e+00  -6.9576991457154236e-07 -3.8764524152856694e-06 0.0000000000000000e+00  -6.9668908286857345e-07 -4.2294421769284440e-06 0.0000000000000000e+00  -6.8312765377775975e-07 -4.5373001467119423e-06 0.0000000000000000e+00  -6.5965047957305956e-07 -4.8070292351098942e-06 0.0000000000000000e+00  -6.2953947188582049e-07 -5.0441523458122361e-06 0.0000000000000000e+00  -5.9519722928058627e-07 -5.2531629453067552e-06 0.0000000000000000e+00  -5.5840149770780556e-07 -5.4378091078888247e-06 0.0000000000000000e+00  -5.2047207810268503e-07 -5.6012782705394670e-06 0.0000000000000000e+00  -4.8238405137013274e-07 -5.7463240354937994e-06 0.0000000000000000e+00  -4.4484682137913012e-07 -5.8753570211234063e-06 0.0000000000000000e+00  -4.0836050008152824e-07 -5.9905131108983767e-06 0.0000000000000000e+00  -3.7325657542552904e-07 -6.0937075629929893e-06 0.0000000000000000e+00  -3.3972700941298228e-07 -6.1866810070476674e-06 0.0000000000000000e+00  -3.0784400739669593e-07 -6.2710422827905177e-06 0.0000000000000000e+00  -2.7757103993053533e-07 -6.3483132910491236e-06 0.0000000000000000e+00  -2.4876376603089057e-07 -6.4199829881150805e-06 0.0000000000000000e+00  -2.2115606657102660e-07 -6.4875819332232965e-06 0.0000000000000000e+00  -1.9431930220470406e-07 -6.5528038206696948e-06 0.0000000000000000e+00  -1.6756541176832229e-07 -6.6177135682465860e-06 0.0000000000000000e+00  -1.3972357448821526e-07 -6.6852633509029147e-06 0.0000000000000000e+00  -1.0871305944348819e-07 -6.7599955402286582e-06 0.0000000000000000e+00  -7.0847467448231782e-08 -6.8529394263716625e-06 0.0000000000000000e+00  -3.5515226537441436e-08 -6.9698612927826531e-06 0.0000000000000000e+00  -1.5084621995953285e-08 -7.0678661499012918e-06 0.0000000000000000e+00  -2.0428103653102880e-14 -7.1020442951041929e-06 0.0000000000000000e+00  1.5084580806679071e-08 -7.0678661581169422e-06 0.0000000000000000e+00  3.5515185237144919e-08 -6.9698613074375970e-06 0.0000000000000000e+00  7.0847426592024476e-08 -6.8529394487981676e-06 0.0000000000000000e+00  1.0871301991954851e-07 -6.7599955726471705e-06 0.0000000000000000e+00  1.3972353785085545e-07 -6.6852633906488990e-06 0.0000000000000000e+00  1.6756537657425241e-07 -6.6177136139877746e-06 0.0000000000000000e+00  1.9431926956414713e-07 -6.5528038719619985e-06 0.0000000000000000e+00  2.2115603715011645e-07 -6.4875819894005815e-06 0.0000000000000000e+00  2.4876373938553797e-07 -6.4199830474009900e-06 0.0000000000000000e+00  2.7757101672687412e-07 -6.3483133549979698e-06 0.0000000000000000e+00  3.0784398752370379e-07 -6.2710423507361668e-06 0.0000000000000000e+00  3.3972699353679303e-07 -6.1866810783239856e-06 0.0000000000000000e+00  3.7325656310205346e-07 -6.0937076362677089e-06 0.0000000000000000e+00  4.0836049342019010e-07 -5.9905131848392301e-06 0.0000000000000000e+00  4.4484681871459486e-07 -5.8753570963965274e-06 0.0000000000000000e+00  4.8238405248035576e-07 -5.7463241107669205e-06 0.0000000000000000e+00  5.2047208298766634e-07 -5.6012783449244097e-06 0.0000000000000000e+00  5.5840150514629983e-07 -5.4378091802753659e-06 0.0000000000000000e+00  5.9519724016077191e-07 -5.2531630152508058e-06 0.0000000000000000e+00  6.2953948554156369e-07 -5.0441524126476622e-06 0.0000000000000000e+00  6.5965049456107039e-07 -4.8070292968382944e-06 0.0000000000000000e+00  6.8312766998701591e-07 -4.5373002017790043e-06 0.0000000000000000e+00  6.9668909985498573e-07 -4.2294422257782571e-06 0.0000000000000000e+00  6.9576993089182082e-07 -3.8764524590284566e-06 0.0000000000000000e+00  6.7386131985536224e-07 -3.4690317203267540e-06 0.0000000000000000e+00  6.2140545742384035e-07 -2.9943336010695987e-06 0.0000000000000000e+00  5.2412397710810410e-07 -2.4321476941313591e-06 0.0000000000000000e+00  3.6258110946985056e-07 -1.7558869311873337e-06 0.0000000000000000e+00  1.2159126272504039e-07 -8.8966319244931924e-07 0.0000000000000000e+00  0.0000000000000000e+00 0.0000000000000000e+00 0.0000000000000000e+00  0.0000000000000000e+00 0.0000000000000000e+00 0.0000000000000000e+00  -6.2262974775961766e-09 -7.0838921528704191e-07 0.0000000000000000e+00  -8.1084269742959236e-08 -1.4462292148298417e-06 0.0000000000000000e+00  -1.9212741908525288e-07 -2.1102059246658200e-06 0.0000000000000000e+00  -2.8511708505263300e-07 -2.6733759610486629e-06 0.0000000000000000e+00  -3.5236773032742974e-07 -3.1544128522575932e-06 0.0000000000000000e+00  -3.9606974899797365e-07 -3.5678879921619000e-06 0.0000000000000000e+00  -4.2078401607525961e-07 -3.9258965960353720e-06 0.0000000000000000e+00  -4.3085158218936215e-07 -4.2375912125969251e-06 0.0000000000000000e+00  -4.2988919024544714e-07 -4.5101219727783359e-06 0.0000000000000000e+00  -4.2078071382789517e-07 -4.7491932875232123e-06 0.0000000000000000e+00  -4.0579028737219858e-07 -4.9594704814026613e-06 0.0000000000000000e+00  -3.8668283042220253e-07 -5.1448483684435331e-06 0.0000000000000000e+00  -3.6482584708785737e-07 -5.3086362468146575e-06 0.0000000000000000e+00  -3.4126960235525416e-07 -5.4536880629285633e-06 0.0000000000000000e+00  -3.1680868328720635e-07 -5.5824972673423900e-06 0.0000000000000000e+00  -2.9202867968258772e-07 -5.6972687165757208e-06 0.0000000000000000e+00  -2.6734102531733583e-07 -5.7999759608406976e-06 0.0000000000000000e+00  -2.4300812229149926e-07 -5.8924100181378947e-06 0.0000000000000000e+00  -2.1915984960152457e-07 -5.9762247581751637e-06 0.0000000000000000e+00  -1.9580155896647966e-07 -6.0529842924594845e-06 0.0000000000000000e+00  -1.7281251674106102e-07 -6.1242193858390692e-06 0.0000000000000000e+00  -1.4993260055717883e-07 -6.1915046953853192e-06 0.0000000000000000e+00  -1.2673582872047007e-07 -6.2565746512532883e-06 0.0000000000000000e+00  -1.0259798877143567e-07 -6.3215280252659767e-06 0.0000000000000000e+00  -7.6744224752900436e-08 -6.3891031421015043e-06 0.0000000000000000e+00  -4.8640330208016280e-08 -6.4633579015538345e-06 0.0000000000000000e+00  -2.1262822835765860e-08 -6.5476044761592078e-06 0.0000000000000000e+00  -2.1662520666154705e-09 -6.6354821728342728e-06 0.0000000000000000e+00  3.7661249674414421e-09 -6.7045279283917125e-06 0.0000000000000000e+00  -1.7541523789077473e-14 -6.7305218587332405e-06 0.0000000000000000e+00  -3.7661598284444153e-09 -6.7045279359412291e-06 0.0000000000000000e+00  2.1662169835678924e-09 -6.6354821877112613e-06 0.0000000000000000e+00  2.1262787974762887e-08 -6.5476044983636683e-06 0.0000000000000000e+00  4.8640295458035609e-08 -6.4633579341943914e-06 0.0000000000000000e+00  7.6744191002120488e-08 -6.3891031831797562e-06 0.0000000000000000e+00  1.0259795779621328e-07 -6.3215280718953437e-06 0.0000000000000000e+00  1.2673579941058222e-07 -6.2565747034337704e-06 0.0000000000000000e+00  1.4993257346773703e-07 -6.1915047520066935e-06 0.0000000000000000e+00  1.7281249264922138e-07 -6.1242194471233802e-06 0.0000000000000000e+00  1.9580153820530910e-07 -6.0529843577405984e-06 0.0000000000000000e+00  2.1915983161591157e-07 -5.9762248265649021e-06 0.0000000000000000e+00  2.4300810752553303e-07 -5.8924100907464805e-06 0.0000000000000000e+00  2.6734101465919480e-07 -5.7999760361138186e-06 0.0000000000000000e+00  2.9202867302124957e-07 -5.6972687922929310e-06 0.0000000000000000e+00  3.1680868073369339e-07 -5.5824973437257341e-06 0.0000000000000000e+00  3.4126960213320956e-07 -5.4536881395339520e-06 0.0000000000000000e+00  3.6482585041852644e-07 -5.3086363223098232e-06 0.0000000000000000e+00  3.8668283697251837e-07 -5.1448484423843865e-06 0.0000000000000000e+00  4.0579029703113889e-07 -4.9594705537892025e-06 0.0000000000000000e+00  4.2078072526319232e-07 -4.7491933548027276e-06 0.0000000000000000e+00  4.2988920379016804e-07 -4.5101220349508253e-06 0.0000000000000000e+00  4.3085159528999384e-07 -4.2375912672198979e-06 0.0000000000000000e+00  4.2078402906486900e-07 -3.9258966453292743e-06 0.0000000000000000e+00  3.9606976154349383e-07 -3.5678880352385534e-06 0.0000000000000000e+00  3.5236774154068229e-07 -3.1544128886729084e-06 0.0000000000000000e+00  2.8511709482259562e-07 -2.6733759903585508e-06 0.0000000000000000e+00  1.9212742685681405e-07 -2.1102059473143697e-06 0.0000000000000000e+00  8.1084274405895940e-08 -1.4462292299288748e-06 0.0000000000000000e+00  6.2262995870199234e-09 -7.0838922261451387e-07 0.0000000000000000e+00  0.0000000000000000e+00 0.0000000000000000e+00 0.0000000000000000e+00  0.0000000000000000e+00 0.0000000000000000e+00 0.0000000000000000e+00  5.4269473359624953e-08 -6.0421376013586325e-07 0.0000000000000000e+00  5.1569647441240818e-08 -1.2368333908163720e-06 0.0000000000000000e+00  8.3313014265229413e-09 -1.8394471634763931e-06 0.0000000000000000e+00  -5.1281256574498002e-08 -2.3800552835240296e-06 0.0000000000000000e+00  -1.0738238009899703e-07 -2.8527764586172566e-06 0.0000000000000000e+00  -1.5299882116792674e-07 -3.2643548952826507e-06 0.0000000000000000e+00  -1.8668473145133646e-07 -3.6228449471487068e-06 0.0000000000000000e+00  -2.0933106759102316e-07 -3.9358070285100411e-06 0.0000000000000000e+00  -2.2257928256053106e-07 -4.2096956212045455e-06 0.0000000000000000e+00  -2.2818011191638732e-07 -4.4499419526999873e-06 0.0000000000000000e+00  -2.2774392105517904e-07 -4.6611204294055852e-06 0.0000000000000000e+00  -2.2266024735095868e-07 -4.8471174645126069e-06 0.0000000000000000e+00  -2.1408612971285379e-07 -5.0112694622850285e-06 0.0000000000000000e+00  -2.0296085456728008e-07 -5.1564713221541325e-06 0.0000000000000000e+00  -1.9002886597618840e-07 -5.2852611454046183e-06 0.0000000000000000e+00  -1.7586315737005975e-07 -5.3998875342298192e-06 0.0000000000000000e+00  -1.6088601872965569e-07 -5.5023649325747215e-06 0.0000000000000000e+00  -1.4538596926350067e-07 -5.5945216177466506e-06 0.0000000000000000e+00  -1.2953063222020944e-07 -5.6780445301107818e-06 0.0000000000000000e+00  -1.1337594374438709e-07 -5.7545252336588248e-06 0.0000000000000000e+00  -9.6873373323091982e-08 -5.8255120833905494e-06 0.0000000000000000e+00  -7.9880553283118161e-08 -5.8925741135418264e-06 0.0000000000000000e+00  -6.2191126470878544e-08 -5.9573833890436134e-06 0.0000000000000000e+00  -4.3634427626670913e-08 -6.0217964106268340e-06 0.0000000000000000e+00  -2.4358495664955626e-08 -6.0878963135113651e-06 0.0000000000000000e+00  -5.7117384155702666e-09 -6.1573764102984541e-06 0.0000000000000000e+00  8.9761595933879335e-09 -6.2292927902607431e-06 0.0000000000000000e+00  1.5322921043114945e-08 -6.2967407232772388e-06 0.0000000000000000e+00  1.1254299603358220e-08 -6.3463379902373163e-06 0.0000000000000000e+00  -1.4654943925052066e-14 -6.3646703132302918e-06 0.0000000000000000e+00  -1.1254329690402187e-08 -6.3463379971206990e-06 0.0000000000000000e+00  -1.5322951796292728e-08 -6.2967407377101381e-06 0.0000000000000000e+00  -8.9761893473649934e-09 -6.2292928124652036e-06 0.0000000000000000e+00  5.7117082175039968e-09 -6.1573764427169664e-06 0.0000000000000000e+00  2.4358466355067776e-08 -6.0878963556998400e-06 0.0000000000000000e+00  4.3634399538028390e-08 -6.0217964581443795e-06 0.0000000000000000e+00  6.2191100158592860e-08 -5.9573834418902294e-06 0.0000000000000000e+00  7.9880529080256224e-08 -5.8925741706072898e-06 0.0000000000000000e+00  9.6873351673743002e-08 -5.8255121462291726e-06 0.0000000000000000e+00  1.1337592431548416e-07 -5.7545253002722063e-06 0.0000000000000000e+00  1.2953061545584177e-07 -5.6780446000548324e-06 0.0000000000000000e+00  1.4538595582980207e-07 -5.5945216916875040e-06 0.0000000000000000e+00  1.6088600796049235e-07 -5.5023650094021548e-06 0.0000000000000000e+00  1.7586315015361009e-07 -5.3998876112792971e-06 0.0000000000000000e+00  1.9002886131325170e-07 -5.2852612226761408e-06 0.0000000000000000e+00  2.0296085290194554e-07 -5.1564713994256550e-06 0.0000000000000000e+00  2.1408613071205451e-07 -5.0112695393345064e-06 0.0000000000000000e+00  2.2266025123673927e-07 -4.8471175395636834e-06 0.0000000000000000e+00  2.2774392749447259e-07 -4.6611205013480372e-06 0.0000000000000000e+00  2.2818011924385928e-07 -4.4499420213117702e-06 0.0000000000000000e+00  2.2257929044311453e-07 -4.2096956838211241e-06 0.0000000000000000e+00  2.0933107602871814e-07 -3.9358070833550585e-06 0.0000000000000000e+00  1.8668474022209836e-07 -3.6228449964426090e-06 0.0000000000000000e+00  1.5299882916153251e-07 -3.2643549379152148e-06 0.0000000000000000e+00  1.0738238753749130e-07 -2.8527764948105272e-06 0.0000000000000000e+00  5.1281263235836150e-08 -2.3800553119457390e-06 0.0000000000000000e+00  -8.3312965415416329e-09 -1.8394471854588090e-06 0.0000000000000000e+00  -5.1569643666482534e-08 -1.2368334050272267e-06 0.0000000000000000e+00  -5.4269470917134299e-08 -6.0421376768537982e-07 0.0000000000000000e+00  0.0000000000000000e+00 0.0000000000000000e+00 0.0000000000000000e+00  0.0000000000000000e+00 0.0000000000000000e+00 0.0000000000000000e+00  8.6540511978761003e-08 -5.3054699700183505e-07 0.0000000000000000e+00  1.2835673579569828e-07 -1.0827407332936190e-06 0.0000000000000000e+00  1.3060681480769887e-07 -1.6223519312408285e-06 0.0000000000000000e+00  1.0754597579154535e-07 -2.1236879463870650e-06 0.0000000000000000e+00  7.3250297605298442e-08 -2.5751867158696484e-06 0.0000000000000000e+00  3.7655777274103741e-08 -2.9754864272479864e-06 0.0000000000000000e+00  5.7363113148412026e-09 -3.3281773994531250e-06 0.0000000000000000e+00  -2.0501742081791008e-08 -3.6382248347344159e-06 0.0000000000000000e+00  -4.0661826128385314e-08 -3.9107003746430280e-06 0.0000000000000000e+00  -5.5121250897016694e-08 -4.1502867162979129e-06 0.0000000000000000e+00  -6.4581237690930493e-08 -4.3611582238867186e-06 0.0000000000000000e+00  -6.9833176796763041e-08 -4.5469899492278643e-06 0.0000000000000000e+00  -7.1642683563410969e-08 -4.7110109382408893e-06 0.0000000000000000e+00  -7.0695675313814377e-08 -4.8560662437857616e-06 0.0000000000000000e+00  -6.7576624074305869e-08 -4.9846757921301332e-06 0.0000000000000000e+00  -6.2763155783684965e-08 -5.0990868816214174e-06 0.0000000000000000e+00  -5.6628692401972103e-08 -5.2013206055523398e-06 0.0000000000000000e+00  -4.9449033756587824e-08 -5.2932137410977020e-06 0.0000000000000000e+00  -4.1411376550115619e-08 -5.3764580172366294e-06 0.0000000000000000e+00  -3.2626566337512486e-08 -5.4526386044084774e-06 0.0000000000000000e+00  -2.3148555516883107e-08 -5.5232726312581804e-06 0.0000000000000000e+00  -1.3010873489704977e-08 -5.5898455413316839e-06 0.0000000000000000e+00  -2.3022552753104719e-09 -5.6538305979181303e-06 0.0000000000000000e+00  8.6789908593232212e-09 -5.7166512468231900e-06 0.0000000000000000e+00  1.9117140204194527e-08 -5.7794277956713103e-06 0.0000000000000000e+00  2.7336592545168514e-08 -5.8422493340870574e-06 0.0000000000000000e+00  3.0828407382443856e-08 -5.9029075318850488e-06 0.0000000000000000e+00  2.7222586629349621e-08 -5.9558089098299405e-06 0.0000000000000000e+00  1.6075349273947381e-08 -5.9927118107871991e-06 0.0000000000000000e+00  -1.2656542480726785e-14 -6.0060350060009426e-06 0.0000000000000000e+00  -1.6075374364987738e-08 -5.9927118174485372e-06 0.0000000000000000e+00  -2.7222611720389978e-08 -5.9558089240407952e-06 0.0000000000000000e+00  -3.0828432695528818e-08 -5.9029075543115539e-06 0.0000000000000000e+00  -2.73