<?xml version="1.0"?>
<VTKFile type="UnstructuredGrid"  version="0.1"  >
<UnstructuredGrid>
<Piece  NumberOfPoints="3321" NumberOfCells="3200">
<Points>
<DataArray  type="Float64"  NumberOfComponents="3"  format="ascii">0 0 0  2 0 0  4 0 0  6 0 0  8 0 0  10 0 0  12 0 0  14 0 0  16 0 0  18 0 0  20 0 0  22 0 0  24 0 0  26 0 0  28 0 0  30 0 0  32 0 0  34 0 0  36 0 0  38 0 0  40 0 0  42 0 0  44 0 0  46 0 0  48 0 0  50 0 0  52 0 0  54 0 0  56 0 0  58 0 0  60 0 0  62 0 0  64 0 0  66 0 0  68 0 0  70 0 0  72 0 0  74 0 0  76 0 0  78 0 0  80 0 0  82 0 0  84 0 0  86 0 0  88 0 0  90 0 0  92 0 0  94 0 0  96 0 0  98 0 0  100 0 0  102 0 0  104 0 0  106 0 0  108 0 0  110 0 0  112 0 0  114 0 0  116 0 0  118 0 0  120 0 0  122 0 0  124 0 0  126 0 0  128 0 0  130 0 0  132 0 0  134 0 0  136 0 0  138 0 0  140 0 0  142 0 0  144 0 0  146 0 0  148 0 0  150 0 0  152 0 0  154 0 0  156 0 0  158 0 0  160 0 0  0 2 0  2 2 0  4 2 0  6 2 0  8 2 0  10 2 0  12 2 0  14 2 0  16 2 0  18 2 0  20 2 0  22 2 0  24 2 0  26 2 0  28 2 0  30 2 0  32 2 0  34 2 0  36 2 0  38 2 0  40 2 0  42 2 0  44 2 0  46 2 0  48 2 0  50 2 0  52 2 0  54 2 0  56 2 0  58 2 0  60 2 0  62 2 0  64 2 0  66 2 0  68 2 0  70 2 0  72 2 0  74 2 0  76 2 0  78 2 0  80 2 0  82 2 0  84 2 0  86 2 0  88 2 0  90 2 0  92 2 0  94 2 0  96 2 0  98 2 0  100 2 0  102 2 0  104 2 0  106 2 0  108 2 0  110 2 0  112 2 0  114 2 0  116 2 0  118 2 0  120 2 0  122 2 0  124 2 0  126 2 0  128 2 0  130 2 0  132 2 0  134 2 0  136 2 0  138 2 0  140 2 0  142 2 0  144 2 0  146 2 0  148 2 0  150 2 0  152 2 0  154 2 0  156 2 0  158 2 0  160 2 0  0 4 0  2 4 0  4 4 0  6 4 0  8 4 0  10 4 0  12 4 0  14 4 0  16 4 0  18 4 0  20 4 0  22 4 0  24 4 0  26 4 0  28 4 0  30 4 0  32 4 0  34 4 0  36 4 0  38 4 0  40 4 0  42 4 0  44 4 0  46 4 0  48 4 0  50 4 0  52 4 0  54 4 0  56 4 0  58 4 0  60 4 0  62 4 0  64 4 0  66 4 0  68 4 0  70 4 0  72 4 0  74 4 0  76 4 0  78 4 0  80 4 0  82 4 0  84 4 0  86 4 0  88 4 0  90 4 0  92 4 0  94 4 0  96 4 0  98 4 0  100 4 0  102 4 0  104 4 0  106 4 0  108 4 0  110 4 0  112 4 0  114 4 0  116 4 0  118 4 0  120 4 0  122 4 0  124 4 0  126 4 0  128 4 0  130 4 0  132 4 0  134 4 0  136 4 0  138 4 0  140 4 0  142 4 0  144 4 0  146 4 0  148 4 0  150 4 0  152 4 0  154 4 0  156 4 0  158 4 0  160 4 0  0 6 0  2 6 0  4 6 0  6 6 0  8 6 0  10 6 0  12 6 0  14 6 0  16 6 0  18 6 0  20 6 0  22 6 0  24 6 0  26 6 0  28 6 0  30 6 0  32 6 0  34 6 0  36 6 0  38 6 0  40 6 0  42 6 0  44 6 0  46 6 0  48 6 0  50 6 0  52 6 0  54 6 0  56 6 0  58 6 0  60 6 0  62 6 0  64 6 0  66 6 0  68 6 0  70 6 0  72 6 0  74 6 0  76 6 0  78 6 0  80 6 0  82 6 0  84 6 0  86 6 0  88 6 0  90 6 0  92 6 0  94 6 0  96 6 0  98 6 0  100 6 0  102 6 0  104 6 0  106 6 0  108 6 0  110 6 0  112 6 0  114 6 0  116 6 0  118 6 0  120 6 0  122 6 0  124 6 0  126 6 0  128 6 0  130 6 0  132 6 0  134 6 0  136 6 0  138 6 0  140 6 0  142 6 0  144 6 0  146 6 0  148 6 0  150 6 0  152 6 0  154 6 0  156 6 0  158 6 0  160 6 0  0 8 0  2 8 0  4 8 0  6 8 0  8 8 0  10 8 0  12 8 0  14 8 0  16 8 0  18 8 0  20 8 0  22 8 0  24 8 0  26 8 0  28 8 0  30 8 0  32 8 0  34 8 0  36 8 0  38 8 0  40 8 0  42 8 0  44 8 0  46 8 0  48 8 0  50 8 0  52 8 0  54 8 0  56 8 0  58 8 0  60 8 0  62 8 0  64 8 0  66 8 0  68 8 0  70 8 0  72 8 0  74 8 0  76 8 0  78 8 0  80 8 0  82 8 0  84 8 0  86 8 0  88 8 0  90 8 0  92 8 0  94 8 0  96 8 0  98 8 0  100 8 0  102 8 0  104 8 0  106 8 0  108 8 0  110 8 0  112 8 0  114 8 0  116 8 0  118 8 0  120 8 0  122 8 0  124 8 0  126 8 0  128 8 0  130 8 0  132 8 0  134 8 0  136 8 0  138 8 0  140 8 0  142 8 0  144 8 0  146 8 0  148 8 0  150 8 0  152 8 0  154 8 0  156 8 0  158 8 0  160 8 0  0 10 0  2 10 0  4 10 0  6 10 0  8 10 0  10 10 0  12 10 0  14 10 0  16 10 0  18 10 0  20 10 0  22 10 0  24 10 0  26 10 0  28 10 0  30 10 0  32 10 0  34 10 0  36 10 0  38 10 0  40 10 0  42 10 0  44 10 0  46 10 0  48 10 0  50 10 0  52 10 0  54 10 0  56 10 0  58 10 0  60 10 0  62 10 0  64 10 0  66 10 0  68 10 0  70 10 0  72 10 0  74 10 0  76 10 0  78 10 0  80 10 0  82 10 0  84 10 0  86 10 0  88 10 0  90 10 0  92 10 0  94 10 0  96 10 0  98 10 0  100 10 0  102 10 0  104 10 0  106 10 0  108 10 0  110 10 0  112 10 0  114 10 0  116 10 0  118 10 0  120 10 0  122 10 0  124 10 0  126 10 0  128 10 0  130 10 0  132 10 0  134 10 0  136 10 0  138 10 0  140 10 0  142 10 0  144 10 0  146 10 0  148 10 0  150 10 0  152 10 0  154 10 0  156 10 0  158 10 0  160 10 0  0 12 0  2 12 0  4 12 0  6 12 0  8 12 0  10 12 0  12 12 0  14 12 0  16 12 0  18 12 0  20 12 0  22 12 0  24 12 0  26 12 0  28 12 0  30 12 0  32 12 0  34 12 0  36 12 0  38 12 0  40 12 0  42 12 0  44 12 0  46 12 0  48 12 0  50 12 0  52 12 0  54 12 0  56 12 0  58 12 0  60 12 0  62 12 0  64 12 0  66 12 0  68 12 0  70 12 0  72 12 0  74 12 0  76 12 0  78 12 0  80 12 0  82 12 0  84 12 0  86 12 0  88 12 0  90 12 0  92 12 0  94 12 0  96 12 0  98 12 0  100 12 0  102 12 0  104 12 0  106 12 0  108 12 0  110 12 0  112 12 0  114 12 0  116 12 0  118 12 0  120 12 0  122 12 0  124 12 0  126 12 0  128 12 0  130 12 0  132 12 0  134 12 0  136 12 0  138 12 0  140 12 0  142 12 0  144 12 0  146 12 0  148 12 0  150 12 0  152 12 0  154 12 0  156 12 0  158 12 0  160 12 0  0 14 0  2 14 0  4 14 0  6 14 0  8 14 0  10 14 0  12 14 0  14 14 0  16 14 0  18 14 0  20 14 0  22 14 0  24 14 0  26 14 0  28 14 0  30 14 0  32 14 0  34 14 0  36 14 0  38 14 0  40 14 0  42 14 0  44 14 0  46 14 0  48 14 0  50 14 0  52 14 0  54 14 0  56 14 0  58 14 0  60 14 0  62 14 0  64 14 0  66 14 0  68 14 0  70 14 0  72 14 0  74 14 0  76 14 0  78 14 0  80 14 0  82 14 0  84 14 0  86 14 0  88 14 0  90 14 0  92 14 0  94 14 0  96 14 0  98 14 0  100 14 0  102 14 0  104 14 0  106 14 0  108 14 0  110 14 0  112 14 0  114 14 0  116 14 0  118 14 0  120 14 0  122 14 0  124 14 0  126 14 0  128 14 0  130 14 0  132 14 0  134 14 0  136 14 0  138 14 0  140 14 0  142 14 0  144 14 0  146 14 0  148 14 0  150 14 0  152 14 0  154 14 0  156 14 0  158 14 0  160 14 0  0 16 0  2 16 0  4 16 0  6 16 0  8 16 0  10 16 0  12 16 0  14 16 0  16 16 0  18 16 0  20 16 0  22 16 0  24 16 0  26 16 0  28 16 0  30 16 0  32 16 0  34 16 0  36 16 0  38 16 0  40 16 0  42 16 0  44 16 0  46 16 0  48 16 0  50 16 0  52 16 0  54 16 0  56 16 0  58 16 0  60 16 0  62 16 0  64 16 0  66 16 0  68 16 0  70 16 0  72 16 0  74 16 0  76 16 0  78 16 0  80 16 0  82 16 0  84 16 0  86 16 0  88 16 0  90 16 0  92 16 0  94 16 0  96 16 0  98 16 0  100 16 0  102 16 0  104 16 0  106 16 0  108 16 0  110 16 0  112 16 0  114 16 0  116 16 0  118 16 0  120 16 0  122 16 0  124 16 0  126 16 0  128 16 0  130 16 0  132 16 0  134 16 0  136 16 0  138 16 0  140 16 0  142 16 0  144 16 0  146 16 0  148 16 0  150 16 0  152 16 0  154 16 0  156 16 0  158 16 0  160 16 0  0 18 0  2 18 0  4 18 0  6 18 0  8 18 0  10 18 0  12 18 0  14 18 0  16 18 0  18 18 0  20 18 0  22 18 0  24 18 0  26 18 0  28 18 0  30 18 0  32 18 0  34 18 0  36 18 0  38 18 0  40 18 0  42 18 0  44 18 0  46 18 0  48 18 0  50 18 0  52 18 0  54 18 0  56 18 0  58 18 0  60 18 0  62 18 0  64 18 0  66 18 0  68 18 0  70 18 0  72 18 0  74 18 0  76 18 0  78 18 0  80 18 0  82 18 0  84 18 0  86 18 0  88 18 0  90 18 0  92 18 0  94 18 0  96 18 0  98 18 0  100 18 0  102 18 0  104 18 0  106 18 0  108 18 0  110 18 0  112 18 0  114 18 0  116 18 0  118 18 0  120 18 0  122 18 0  124 18 0  126 18 0  128 18 0  130 18 0  132 18 0  134 18 0  136 18 0  138 18 0  140 18 0  142 18 0  144 18 0  146 18 0  148 18 0  150 18 0  152 18 0  154 18 0  156 18 0  158 18 0  160 18 0  0 20 0  2 20 0  4 20 0  6 20 0  8 20 0  10 20 0  12 20 0  14 20 0  16 20 0  18 20 0  20 20 0  22 20 0  24 20 0  26 20 0  28 20 0  30 20 0  32 20 0  34 20 0  36 20 0  38 20 0  40 20 0  42 20 0  44 20 0  46 20 0  48 20 0  50 20 0  52 20 0  54 20 0  56 20 0  58 20 0  60 20 0  62 20 0  64 20 0  66 20 0  68 20 0  70 20 0  72 20 0  74 20 0  76 20 0  78 20 0  80 20 0  82 20 0  84 20 0  86 20 0  88 20 0  90 20 0  92 20 0  94 20 0  96 20 0  98 20 0  100 20 0  102 20 0  104 20 0  106 20 0  108 20 0  110 20 0  112 20 0  114 20 0  116 20 0  118 20 0  120 20 0  122 20 0  124 20 0  126 20 0  128 20 0  130 20 0  132 20 0  134 20 0  136 20 0  138 20 0  140 20 0  142 20 0  144 20 0  146 20 0  148 20 0  150 20 0  152 20 0  154 20 0  156 20 0  158 20 0  160 20 0  0 22 0  2 22 0  4 22 0  6 22 0  8 22 0  10 22 0  12 22 0  14 22 0  16 22 0  18 22 0  20 22 0  22 22 0  24 22 0  26 22 0  28 22 0  30 22 0  32 22 0  34 22 0  36 22 0  38 22 0  40 22 0  42 22 0  44 22 0  46 22 0  48 22 0  50 22 0  52 22 0  54 22 0  56 22 0  58 22 0  60 22 0  62 22 0  64 22 0  66 22 0  68 22 0  70 22 0  72 22 0  74 22 0  76 22 0  78 22 0  80 22 0  82 22 0  84 22 0  86 22 0  88 22 0  90 22 0  92 22 0  94 22 0  96 22 0  98 22 0  100 22 0  102 22 0  104 22 0  106 22 0  108 22 0  110 22 0  112 22 0  114 22 0  116 22 0  118 22 0  120 22 0  122 22 0  124 22 0  126 22 0  128 22 0  130 22 0  132 22 0  134 22 0  136 22 0  138 22 0  140 22 0  142 22 0  144 22 0  146 22 0  148 22 0  150 22 0  152 22 0  154 22 0  156 22 0  158 22 0  160 22 0  0 24 0  2 24 0  4 24 0  6 24 0  8 24 0  10 24 0  12 24 0  14 24 0  16 24 0  18 24 0  20 24 0  22 24 0  24 24 0  26 24 0  28 24 0  30 24 0  32 24 0  34 24 0  36 24 0  38 24 0  40 24 0  42 24 0  44 24 0  46 24 0  48 24 0  50 24 0  52 24 0  54 24 0  56 24 0  58 24 0  60 24 0  62 24 0  64 24 0  66 24 0  68 24 0  70 24 0  72 24 0  74 24 0  76 24 0  78 24 0  80 24 0  82 24 0  84 24 0  86 24 0  88 24 0  90 24 0  92 24 0  94 24 0  96 24 0  98 24 0  100 24 0  102 24 0  104 24 0  106 24 0  108 24 0  110 24 0  112 24 0  114 24 0  116 24 0  118 24 0  120 24 0  122 24 0  124 24 0  126 24 0  128 24 0  130 24 0  132 24 0  134 24 0  136 24 0  138 24 0  140 24 0  142 24 0  144 24 0  146 24 0  148 24 0  150 24 0  152 24 0  154 24 0  156 24 0  158 24 0  160 24 0  0 26 0  2 26 0  4 26 0  6 26 0  8 26 0  10 26 0  12 26 0  14 26 0  16 26 0  18 26 0  20 26 0  22 26 0  24 26 0  26 26 0  28 26 0  30 26 0  32 26 0  34 26 0  36 26 0  38 26 0  40 26 0  42 26 0  44 26 0  46 26 0  48 26 0  50 26 0  52 26 0  54 26 0  56 26 0  58 26 0  60 26 0  62 26 0  64 26 0  66 26 0  68 26 0  70 26 0  72 26 0  74 26 0  76 26 0  78 26 0  80 26 0  82 26 
[...]
<PointData  Vectors="displacements"> 
<DataArray  type="Float64"  Name="displacements"  NumberOfComponents="3" format="ascii">0.0000000000000000e+00 0.0000000000000000e+00 0.0000000000000000e+00  -1.0300065607587252e+00 -9.0539530446451433e-01 0.0000000000000000e+00  -1.8315018568870418e+00 -1.5813873595378920e+00 0.0000000000000000e+00  -2.5072958043473963e+00 -2.3279635159516183e+00 0.0000000000000000e+00  -3.0956903546611980e+00 -3.1223899146222966e+00 0.0000000000000000e+00  -3.6085290687656713e+00 -3.9544439249693699e+00 0.0000000000000000e+00  -4.0581198135950807e+00 -4.8061908642994418e+00 0.0000000000000000e+00  -4.4568509523540607e+00 -5.6637485287006397e+00 0.0000000000000000e+00  -4.8175759331457204e+00 -6.5180018932010455e+00 0.0000000000000000e+00  -5.1530069230492677e+00 -7.3646781811738125e+00 0.0000000000000000e+00  -5.4761301541137142e+00 -8.2041123291181677e+00 0.0000000000000000e+00  -5.8002574136689748e+00 -9.0421787203793027e+00 0.0000000000000000e+00  -6.1377389725734108e+00 -9.8915209783308597e+00 0.0000000000000000e+00  -6.4967632569682605e+00 -1.0770874162606599e+01 0.0000000000000000e+00  -6.8780155606470430e+00 -1.1700958761050464e+01 0.0000000000000000e+00  -7.2715134471479645e+00 -1.2693316481996799e+01 0.0000000000000000e+00  -7.6640649425617733e+00 -1.3739326549781936e+01 0.0000000000000000e+00  -8.0476147268090550e+00 -1.4813974997957006e+01 0.0000000000000000e+00  -8.4246026326457084e+00 -1.5893158155573179e+01 0.0000000000000000e+00  -8.8004621699396459e+00 -1.6966071269728296e+01 0.0000000000000000e+00  -9.1783616736449893e+00 -1.8032067997015307e+01 0.0000000000000000e+00  -9.5579968333400469e+00 -1.9092853580303487e+01 0.0000000000000000e+00  -9.9385365826312544e+00 -2.0149168681958521e+01 0.0000000000000000e+00  -1.0319318164304478e+01 -2.1201180917070957e+01 0.0000000000000000e+00  -1.0699935614954271e+01 -2.2248743328014498e+01 0.0000000000000000e+00  -1.1080168870884176e+01 -2.3291566500796204e+01 0.0000000000000000e+00  -1.1459904540068276e+01 -2.4329299244843664e+01 0.0000000000000000e+00  -1.1839087572904678e+01 -2.5361564334269069e+01 0.0000000000000000e+00  -1.2217693436124829e+01 -2.6387976165790270e+01 0.0000000000000000e+00  -1.2595712314980700e+01 -2.7408147903452612e+01 0.0000000000000000e+00  -1.2973141398092107e+01 -2.8421693210623349e+01 0.0000000000000000e+00  -1.3349982786816023e+01 -2.9428226478511753e+01 0.0000000000000000e+00  -1.3726245757368263e+01 -3.0427363939523318e+01 0.0000000000000000e+00  -1.4101954031855296e+01 -3.1418727902779345e+01 0.0000000000000000e+00  -1.4477160344806197e+01 -3.2401958219515997e+01 0.0000000000000000e+00  -1.4851971595459176e+01 -3.3376738836002538e+01 0.0000000000000000e+00  -1.5226588795365176e+01 -3.4342847155281589e+01 0.0000000000000000e+00  -1.5601390007616949e+01 -3.5300239844879208e+01 0.0000000000000000e+00  -1.5977141863835332e+01 -3.6249241295036150e+01 0.0000000000000000e+00  -1.6355639675807186e+01 -3.7190774732202428e+01 0.0000000000000000e+00  -1.6742221951086236e+01 -3.8130144298422337e+01 0.0000000000000000e+00  -1.7144012437282235e+01 -3.9084809728787910e+01 0.0000000000000000e+00  -1.7564203283201664e+01 -4.0087642784100140e+01 0.0000000000000000e+00  -1.7993176360430201e+01 -4.1175772794699405e+01 0.0000000000000000e+00  -1.8410183337672972e+01 -4.2373059622985757e+01 0.0000000000000000e+00  -1.8788400486748706e+01 -4.3680372473684002e+01 0.0000000000000000e+00  -1.9103512372794924e+01 -4.5076825836932358e+01 0.0000000000000000e+00  -1.9337773774511085e+01 -4.6523072254727403e+01 0.0000000000000000e+00  -1.9491401740798093e+01 -4.7979646028933615e+01 0.0000000000000000e+00  -1.9623694161616289e+01 -4.9457697395422521e+01 0.0000000000000000e+00  -1.9770055498517429e+01 -5.0984327176022120e+01 0.0000000000000000e+00  -1.9949422282774751e+01 -5.2572343179435649e+01 0.0000000000000000e+00  -2.0118393390286109e+01 -5.4175391581648377e+01 0.0000000000000000e+00  -2.0261617630699735e+01 -5.5770678502029043e+01 0.0000000000000000e+00  -2.0311557660021755e+01 -5.7245002914260155e+01 0.0000000000000000e+00  -2.0821835570002662e+01 -5.8996242838067758e+01 0.0000000000000000e+00  -2.1275493375568811e+01 -6.0553808863438725e+01 0.0000000000000000e+00  -2.1591500779831396e+01 -6.2256365244553322e+01 0.0000000000000000e+00  -2.1901918717574414e+01 -6.3824728887126447e+01 0.0000000000000000e+00  -2.2212841752468243e+01 -6.5385635300824873e+01 0.0000000000000000e+00  -2.2487964449152646e+01 -6.6930361899570883e+01 0.0000000000000000e+00  -2.2753106551971321e+01 -6.8445849698133742e+01 0.0000000000000000e+00  -2.3013443682825546e+01 -6.9947852856692876e+01 0.0000000000000000e+00  -2.3267301406202613e+01 -7.1443528167097099e+01 0.0000000000000000e+00  -2.3515360263405768e+01 -7.2938349091881847e+01 0.0000000000000000e+00  -2.3754057108188917e+01 -7.4437827221178310e+01 0.0000000000000000e+00  -2.3977993238587558e+01 -7.5943487186881015e+01 0.0000000000000000e+00  -2.4181994481651756e+01 -7.7453523292925453e+01 0.0000000000000000e+00  -2.4361524319121287e+01 -7.8963735919677646e+01 0.0000000000000000e+00  -2.4513454627910619e+01 -8.0468289930380422e+01 0.0000000000000000e+00  -2.4636334387189809e+01 -8.1960844748026489e+01 0.0000000000000000e+00  -2.4730198605503915e+01 -8.3435384965557944e+01 0.0000000000000000e+00  -2.4796328731465369e+01 -8.4886642116896411e+01 0.0000000000000000e+00  -2.4837070809739036e+01 -8.6310272050633216e+01 0.0000000000000000e+00  -2.4855792284055894e+01 -8.7702952778752163e+01 0.0000000000000000e+00  -2.4856959047525581e+01 -8.9062621574955116e+01 0.0000000000000000e+00  -2.4846173930625817e+01 -9.0388995500511484e+01 0.0000000000000000e+00  -2.4829959174662022e+01 -9.1684379689466155e+01 0.0000000000000000e+00  -2.4815010090023147e+01 -9.2954643213900638e+01 0.0000000000000000e+00  -2.4806451607530416e+01 -9.4210002366463286e+01 0.0000000000000000e+00  -2.4804432126413175e+01 -9.5463323536401276e+01 0.0000000000000000e+00  0.0000000000000000e+00 0.0000000000000000e+00 0.0000000000000000e+00  -5.8010379930819578e-01 -5.6460152803924990e-01 0.0000000000000000e+00  -1.2439993050688212e+00 -1.3011898658941639e+00 0.0000000000000000e+00  -1.8371336838670695e+00 -2.0751547634694187e+00 0.0000000000000000e+00  -2.3645415154641292e+00 -2.9003606617554722e+00 0.0000000000000000e+00  -2.8359983798135064e+00 -3.7583194866204281e+00 0.0000000000000000e+00  -3.2595726673018808e+00 -4.6318257970876715e+00 0.0000000000000000e+00  -3.6438815220456027e+00 -5.5063497304420750e+00 0.0000000000000000e+00  -3.9969351938012103e+00 -6.3732551636949699e+00 0.0000000000000000e+00  -4.3264262334216799e+00 -7.2283063878710694e+00 0.0000000000000000e+00  -4.6402743744150055e+00 -8.0714702467776700e+00 0.0000000000000000e+00  -4.9468953609304425e+00 -8.9082418830182633e+00 0.0000000000000000e+00  -5.2547621114595575e+00 -9.7514694652267693e+00 0.0000000000000000e+00  -5.5713472143446898e+00 -1.0621813565634005e+01 0.0000000000000000e+00  -5.9010092407722388e+00 -1.1542765550863214e+01 0.0000000000000000e+00  -6.2464096128500310e+00 -1.2531033194016013e+01 0.0000000000000000e+00  -6.6035045930613103e+00 -1.3578085939465398e+01 0.0000000000000000e+00  -6.9710497043151873e+00 -1.4653924037024122e+01 0.0000000000000000e+00  -7.3468000349089468e+00 -1.5732009038862982e+01 0.0000000000000000e+00  -7.7288905238877028e+00 -1.6803024647363547e+01 0.0000000000000000e+00  -8.1133446085860026e+00 -1.7868205379712823e+01 0.0000000000000000e+00  -8.4986241594094523e+00 -1.8928640804639240e+01 0.0000000000000000e+00  -8.8841505258299787e+00 -1.9984878272920085e+01 0.0000000000000000e+00  -9.2696709896843146e+00 -2.1036944114142972e+01 0.0000000000000000e+00  -9.6550827498984635e+00 -2.2084621735529257e+01 0.0000000000000000e+00  -1.0040335061539729e+01 -2.3127591864816583e+01 0.0000000000000000e+00  -1.0425401028989780e+01 -2.4165486765668962e+01 0.0000000000000000e+00  -1.0810267848305180e+01 -2.5197920245154638e+01 0.0000000000000000e+00  -1.1194930051981478e+01 -2.6224502719370413e+01 0.0000000000000000e+00  -1.1579385254250903e+01 -2.7244845950291804e+01 0.0000000000000000e+00  -1.1963632121083059e+01 -2.8258563101220570e+01 0.0000000000000000e+00  -1.2347669696904390e+01 -2.9265267968751083e+01 0.0000000000000000e+00  -1.2731497454479344e+01 -3.0264575441829514e+01 0.0000000000000000e+00  -1.3115115531605593e+01 -3.1256104668469639e+01 0.0000000000000000e+00  -1.3498525854423281e+01 -3.2239488341855655e+01 0.0000000000000000e+00  -1.3881734523951499e+01 -3.3214396123350987e+01 0.0000000000000000e+00  -1.4264750422857983e+01 -3.4180587249362311e+01 0.0000000000000000e+00  -1.4647548526724217e+01 -3.5138004655432901e+01 0.0000000000000000e+00  -1.5029959090075138e+01 -3.6086956465013380e+01 0.0000000000000000e+00  -1.5411064966939655e+01 -3.7028776165491990e+01 0.0000000000000000e+00  -1.5787652791802305e+01 -3.7966943120989399e+01 0.0000000000000000e+00  -1.6158208774821535e+01 -3.8917798892408371e+01 0.0000000000000000e+00  -1.6519993451409363e+01 -3.9916813670222282e+01 0.0000000000000000e+00  -1.6870089446105226e+01 -4.1006702084634114e+01 0.0000000000000000e+00  -1.7199728465951843e+01 -4.2214530230715710e+01 0.0000000000000000e+00  -1.7500763066311290e+01 -4.3540738843636703e+01 0.0000000000000000e+00  -1.7762160500879094e+01 -4.4964036366002098e+01 0.0000000000000000e+00  -1.7973770856868477e+01 -4.6444547064132891e+01 0.0000000000000000e+00  -1.8126471085925704e+01 -4.7926710721635764e+01 0.0000000000000000e+00  -1.8255828417169074e+01 -4.9408548438083351e+01 0.0000000000000000e+00  -1.8400971400535198e+01 -5.0935759008093775e+01 0.0000000000000000e+00  -1.8577736691294565e+01 -5.2513389236453428e+01 0.0000000000000000e+00  -1.8787260955499821e+01 -5.4125864696956789e+01 0.0000000000000000e+00  -1.9030768656514145e+01 -5.5736677497274158e+01 0.0000000000000000e+00  -1.9271145415748791e+01 -5.7329468651190609e+01 0.0000000000000000e+00  -1.9478813873030248e+01 -5.8926142595457129e+01 0.0000000000000000e+00  -1.9555665236343614e+01 -6.0387637236007514e+01 0.0000000000000000e+00  -1.9996788305863934e+01 -6.2113006694151892e+01 0.0000000000000000e+00  -2.0381352858302456e+01 -6.3670174566022474e+01 0.0000000000000000e+00  -2.0682314176787443e+01 -6.5271281805544277e+01 0.0000000000000000e+00  -2.0972521582769776e+01 -6.6810330525738920e+01 0.0000000000000000e+00  -2.1257127100215300e+01 -6.8330724487647956e+01 0.0000000000000000e+00  -2.1523000739428259e+01 -6.9837562048995153e+01 0.0000000000000000e+00  -2.1781175434149791e+01 -7.1334574676229451e+01 0.0000000000000000e+00  -2.2030985109385991e+01 -7.2832779060578133e+01 0.0000000000000000e+00  -2.2269049429784040e+01 -7.4337508379155125e+01 0.0000000000000000e+00  -2.2493102564524687e+01 -7.5850249530829871e+01 0.0000000000000000e+00  -2.2699577938432380e+01 -7.7369461804739785e+01 0.0000000000000000e+00  -2.2885183135089459e+01 -7.8890364208192409e+01 0.0000000000000000e+00  -2.3047671690333789e+01 -8.0406460242265311e+01 0.0000000000000000e+00  -2.3185724973114965e+01 -8.1910841880157122e+01 0.0000000000000000e+00  -2.3299032647344706e+01 -8.3396973907626432e+01 0.0000000000000000e+00  -2.3388222410121070e+01 -8.4859182928494150e+01 0.0000000000000000e+00  -2.3454716348499293e+01 -8.6292777304370574e+01 0.0000000000000000e+00  -2.3500705451355344e+01 -8.7694050967806405e+01 0.0000000000000000e+00  -2.3529170331353303e+01 -8.9060502746341001e+01 0.0000000000000000e+00  -2.3543831864598648e+01 -9.0391408482728167e+01 0.0000000000000000e+00  -2.3548951445345555e+01 -9.1688739440387266e+01 0.0000000000000000e+00  -2.3548923681808162e+01 -9.2958302131333653e+01 0.0000000000000000e+00  -2.3547781322208603e+01 -9.4210714780771426e+01 0.0000000000000000e+00  -2.3548433019838257e+01 -9.5461295381472837e+01 0.0000000000000000e+00  0.0000000000000000e+00 0.0000000000000000e+00 0.0000000000000000e+00  -4.0938779723769192e-01 -4.1561877566750188e-01 0.0000000000000000e+00  -8.6418328831724356e-01 -1.0862793688283394e+00 0.0000000000000000e+00  -1.3284777469577045e+00 -1.8717669946560553e+00 0.0000000000000000e+00  -1.7695253487665032e+00 -2.7119724860168639e+00 0.0000000000000000e+00  -2.1782171837454238e+00 -3.5889721465143345e+00 0.0000000000000000e+00  -2.5562012606907660e+00 -4.4781453658050605e+00 0.0000000000000000e+00  -2.9070682370730965e+00 -5.3652169994972851e+00 0.0000000000000000e+00  -3.2334527936696937e+00 -6.2431094410347709e+00 0.0000000000000000e+00  -3.5373446741978043e+00 -7.1074377324100295e+00 0.0000000000000000e+00  -3.8221561753272919e+00 -7.9569443097980841e+00 0.0000000000000000e+00  -4.0927189821017311e+00 -8.7955786360042492e+00 0.0000000000000000e+00  -4.3558562472055744e+00 -9.6345549266969996e+00 0.0000000000000000e+00  -4.6204270642197276e+00 -1.0494290222835630e+01 0.0000000000000000e+00  -4.8953838794980014e+00 -1.1403816305025430e+01 0.0000000000000000e+00  -5.1811423319053045e+00 -1.2384503638442744e+01 0.0000000000000000e+00  -5.5055467627720658e+00 -1.3423783357517799e+01 0.0000000000000000e+00  -5.8709837688245976e+00 -1.4493120667505597e+01 0.0000000000000000e+00  -6.2614620485711576e+00 -1.5566784447876088e+01 0.0000000000000000e+00  -6.6539561573719510e+00 -1.6635920101592720e+01 0.0000000000000000e+00  -7.0466365096119983e+00 -1.7700839683936987e+01 0.0000000000000000e+00  -7.4385466354968210e+00 -1.8761608059270081e+01 0.0000000000000000e+00  -7.8296089249708842e+00 -1.9818210215118334e+01 0.0000000000000000e+00  -8.2201779840009515e+00 -2.0870504832416252e+01 0.0000000000000000e+00  -8.6105567052500636e+00 -2.1918311405089288e+01 0.0000000000000000e+00  -9.0009210288771211e+00 -2.2961356049733205e+01 0.0000000000000000e+00  -9.3913645703556128e+00 -2.3999294023312647e+01 0.0000000000000000e+00  -9.7819374453062853e+00 -2.5031751836776646e+01 0.0000000000000000e+00  -1.0172665921053484e+01 -2.6058348682327097e+01 0.0000000000000000e+00  -1.0563561702129135e+01 -2.7078702620160605e+01 0.0000000000000000e+00  -1.0954627067243488e+01 -2.8092431040833514e+01 0.0000000000000000e+00  -1.1345857527429157e+01 -2.9099151288562613e+01 0.0000000000000000e+00  -1.1737240012920575e+01 -3.0098483386862767e+01 0.0000000000000000e+00  -1.2128746043327558e+01 -3.1090055693517385e+01 0.0000000000000000e+00  -1.2520318189073683e+01 -3.2073515076924572e+01 0.0000000000000000e+00  -1.2911852076528429e+01 -3.3048548981920746e+01 0.0000000000000000e+00  -1.3303170590975471e+01 -3.4014944788649949e+01 0.0000000000000000e+00  -1.3693949927943143e+01 -3.4972759468087055e+01 0.0000000000000000e+00  -1.4083418443910753e+01 -3.5922622659114985e+01 0.0000000000000000e+00  -1.4470046759182470e+01 -3.6866555041944387e+01 0.0000000000000000e+00  -1.4851631600634946e+01 -3.7808643839745045e+01 0.0000000000000000e+00  -1.5205786341358099e+01 -3.8764881451217157e+01 0.0000000000000000e+00  -1.5518228267321907e+01 -3.9768775485650785e+01 0.0000000000000000e+00  -1.5793308757379233e+01 -4.0859631908372009e+01 0.0000000000000000e+00  -1.6057805422918879e+01 -4.2072624592499764e+01 0.0000000000000000e+00  -1.6305582693166418e+01 -4.3412725871965456e+01 0.0000000000000000e+00  -1.6531623214329020e+01 -4.4857108875848901e+01 0.0000000000000000e+00  -1.6732844587682731e+01 -4.6364244526441325e+01 0.0000000000000000e+00  -1.6906677855437515e+01 -4.7881144685735798e+01 0.0000000000000000e+00  -1.7053534435255870e+01 -4.9380861226321905e+01 0.0000000000000000e+00  -1.7217390117915798e+01 -5.0916758567055389e+01 0.0000000000000000e+00  -1.7412567973396882e+01 -5.2488733467641232e+01 0.0000000000000000e+00  -1.7647824339152656e+01 -5.4100246455716466e+01 0.0000000000000000e+00  -1.7881282171553401e+01 -5.5701122301191432e+01 0.0000000000000000e+00  -1.8116462718766272e+01 -5.7306720154630973e+01 0.0000000000000000e+00  -1.8348945223391443e+01 -5.8902528508184979e+01 0.0000000000000000e+00  -1.8576198166739719e+01 -6.0492231837585450e+01 0.0000000000000000e+00  -1.8763289871498717e+01 -6.2068250978652472e+01 0.0000000000000000e+00  -1.8831801114765160e+01 -6.3515200566185911e+01 0.0000000000000000e+00  -1.9190399126082344e+01 -6.5162718560157984e+01 0.0000000000000000e+00  -1.9515439456631093e+01 -6.6676695681451179e+01 0.0000000000000000e+00  -1.9785971934900047e+01 -6.8224867951768559e+01 0.0000000000000000e+00  -2.0053587356273486e+01 -6.9723676225244105e+01 0.0000000000000000e+00  -2.0320662487839343e+01 -7.1221959383458156e+01 0.0000000000000000e+00  -2.0573555479991377e+01 -7.2723936888303626e+01 0.0000000000000000e+00  -2.0818120966152701e+01 -7.4231958155714054e+01 0.0000000000000000e+00  -2.1050759088443261e+01 -7.5751409727675139e+01 0.0000000000000000e+00  -2.1266822325701657e+01 -7.7279639272196249e+01 0.0000000000000000e+00  -2.1464185920823176e+01 -7.8810790796169726e+01 0.0000000000000000e+00  -2.1640639031860886e+01 -8.0338040825863956e+01 0.0000000000000000e+00  -2.1794729382232131e+01 -8.1853788022046331e+01 0.0000000000000000e+00  -2.1926094943220544e+01 -8.3351028087716330e+01 0.0000000000000000e+00  -2.2034899474046082e+01 -8.4823951648129636e+01 0.0000000000000000e+00  -2.2121719479960539e+01 -8.6267735481553402e+01 0.0000000000000000e+00  -2.2187638594672705e+01 -8.7678411429525681e+01 0.0000000000000000e+00  -2.2234358863196711e+01 -8.9053034825834928e+01 0.0000000000000000e+00  -2.2264354865507151e+01 -9.0390272639967890e+01 0.0000000000000000e+00  -2.2280915480312249e+01 -9.1691381113127150e+01 0.0000000000000000e+00  -2.2288130678637483e+01 -9.2961332726399675e+01 0.0000000000000000e+00  -2.2290872536356620e+01 -9.4209800335604243e+01 0.0000000000000000e+00  -2.2294473553195434e+01 -9.5452575874020894e+01 0.0000000000000000e+00  0.0000000000000000e+00 0.0000000000000000e+00 0.0000000000000000e+00  -2.4055040943729541e-01 -3.2089221228163611e-01 0.0000000000000000e+00  -5.6278463356793085e-01 -9.5430883739312633e-01 0.0000000000000000e+00  -9.1278079260978739e-01 -1.7271800027746598e+00 0.0000000000000000e+00  -1.2536779442359938e+00 -2.5689258685576433e+00 0.0000000000000000e+00  -1.5925969464542118e+00 -3.4567281003006962e+00 0.0000000000000000e+00  -1.9198248145294403e+00 -4.3546867487590948e+00 0.0000000000000000e+00  -2.2318123897034288e+00 -5.2497479999793857e+00 0.0000000000000000e+00  -2.5231831142499743e+00 -6.1382143988548670e+00 0.0000000000000000e+00  -2.7927108657712227e+00 -7.0130275938811835e+00 0.0000000000000000e+00  -3.0400516425979758e+00 -7.8717661427234535e+00 0.0000000000000000e+00  -3.2658310505097363e+00 -8.7154832728625582e+00 0.0000000000000000e+00  -3.4741766015627835e+00 -9.5512912903537543e+00 0.0000000000000000e+00  -3.6730450824259155e+00 -1.0397816100988081e+01 0.0000000000000000e+00  -3.8688494121387480e+00 -1.1291675785344630e+01 0.0000000000000000e+00  -4.0926746666239042e+00 -1.2253413935786140e+01 0.0000000000000000e+00  -4.3806866132183222e+00 -1.3269646414660087e+01 0.0000000000000000e+00  -4.7459406873222267e+00 -1.4320407092035763e+01 0.0000000000000000e+00  -5.1612576392945479e+00 -1.5388517896968217e+01 0.0000000000000000e+00  -5.5737471608505462e+00 -1.6460367939756548e+01 0.0000000000000000e+00  -5.9785929801249198e+00 -1.7527575252203604e+01 0.0000000000000000e+00  -6.3784046627988467e+00 -1.8590648098332714e+01 0.0000000000000000e+00  -6.7753675843627557e+00 -1.9648639631142210e+01 0.0000000000000000e+00  -7.1710943486314980e+00 -2.0701584302786827e+01 0.0000000000000000e+00  -7.5665022698199298e+00 -2.1749654415962848e+01 0.0000000000000000e+00  -7.9620260095347151e+00 -2.2792778946575982e+01 0.0000000000000000e+00  -8.3578705777624425e+00 -2.3830686823239365e+01 0.0000000000000000e+00  -8.7541581668611084e+00 -2.4863045103189013e+01 0.0000000000000000e+00  -9.1509586847152296e+00 -2.5889506811451341e+01 0.0000000000000000e+00  -9.5483011378353702e+00 -2.6909713381284192e+01 0.0000000000000000e+00  -9.9461929502010182e+00 -2.7923294743766213e+01 0.0000000000000000e+00  -1.0344628574586906e+01 -2.8929877626914074e+01 0.0000000000000000e+00  -1.0743588454697518e+01 -2.9929095376515981e+01 0.0000000000000000e+00  -1.1143027