<?xml version="1.0"?>
<VTKFile type="UnstructuredGrid"  version="0.1"  >
<UnstructuredGrid>
<Piece  NumberOfPoints="1718" NumberOfCells="3242">
<Points>
<DataArray  type="Float64"  NumberOfComponents="3"  format="ascii">0 80 0  0 0 0  160 0 0  160 80 0  80 0 0  80 80 0  40 0 0  40 80 0  0 40 0  160 40 0  120 80 0  120 0 0  60 40 0  120 40 0  30 30 0  90 50 0  22.5 57.5 0  160 20 0  140 0 0  160 60 0  140 80 0  100 0 0  81.42857142857143 25.71428571428572 0  60 0 0  136.6666666666667 23.33333333333333 0  45.43478260869566 57.71739130434783 0  70 60 0  104.448051948052 22.77597402597402 0  140 50 0  50 20 0  100 80 0  110 60 0  20 0 0  0 20 0  0 60 0  20 80 0  60 80 0  127.8571428571429 63.57142857142857 0  70 13.45238095238095 0  120.6595411700269 17.14794678331409 0  43.03396957219624 40.89809128341126 0  90 12.34126984126984 0  17.5 17.5 0  95 65 0  14.375 33.125 0  35 15 0  103.1835960163961 39.55078804918819 0  75 45 0  145 65 0  149.5238095238095 30 0  24.53125 43.28125 0  11.328125 48.64955357142857 0  30 69.72222222222223 0  63.03099500669833 25.98450249665083 0  12.25 67.75 0  147.0833333333333 12.91666666666667 0  133.8888888888889 37.22222222222222 0  110 0 0  57.05142935931612 66.02571467965807 0  57.64988715017596 52.91363088739458 0  132.3087800602433 10.80601619908237 0  93.72429196772013 30.40269913090983 0  81.66666666666667 66.66666666666667 0  34.88420512826108 50.64239923514752 0  120.7142857142857 52.85714285714285 0  10 0 0  124.9637655733977 28.70771675587721 0  85.34568206369326 38.9629538089202 0  109.7947831303933 12.01464342601455 0  111.8057601301571 31.76564834986395 0  45.72175790179101 69.59146799301371 0  72.34067302477537 33.39927196063941 0  80.27777777777779 55.55555555555556 0  101.8164039836039 51.36719203279213 0  105 70 0  41.96603042780376 28.93206085560751 0  58.34561938654466 11.67280969327233 0  117.5396825396825 68.73015873015873 0  70 80 0  45 10 0  148.3556547619048 41.71130952380953 0  150 55 0  0 10 0  111.4124276895163 46.49018363820046 0  52.95762497245369 30.73936459826795 0  90 80 0  30 0 0  25.34090909090909 9.886363636363637 0  160 70 0  150 80 0  128.4183673469388 45.98072562358276 0  135.9266409266409 70.3088803088803 0  79.85780423280423 10.33730158730159 0  110 80 0  50 80 0  130 0 0  150 0 0  50 0 0  30 80 0  0 50 0  160 30 0  0 30 0  90 0 0  70 0 0  10 80 0  0 70 0  160 10 0  66.77723403763051 70 0  160 50 0  130 80 0  99.92447862208631 13.81953365169224 0  32.01559780278829 60.0731306412183 0  8.614130434782609 25 0  9.650135782421287 58.30301118262442 0  67.12362677655815 50.70787559218606 0  8.214285714285714 15 0  15 8.201530612244898 0  51.76701208687312 45.1723637175896 0  33.40645193878068 39.16920079832146 0  89.97787543000702 21.76052370832911 0  72.20291993689739 24.02042087891826 0  136.8367346938776 59.38775510204081 0  20.88888888888889 70.86111111111111 0  94.18293562798873 41.73617263361575 0  26.875 20.625 0  21.40625 27.65625 0  88.58333333333334 58.80555555555556 0  129.2756871534741 54.88763713577917 0  145.5952380952381 21.8452380952381 0  140.6642164695856 31.35506551613934 0  112.6093449587678 20.12196714318102 0  118.023549624076 8.662674837383332 0  128.4336201974832 20.8345196306986 0  43.34115799897627 49.43524063307726 0  103.4084667387001 31.13267516613812 0  125.7248137350178 72.20359572400389 0  39.58608602010001 63.79925007322822 0  75.18319879588159 72.62706651615187 0  65.06400234143457 6.726190476190476 0  118.1349206349206 60.59523809523809 0  8.883403066944267 40.10847913997437 0  16.89704082318838 40.75920917681162 0  23.9453125 35.2734375 0  95 6.170634920634919 0  32.84902597402598 7.383658008658007 0  152.5 62.5 0  151.25 71.25 0  42.5 17.5 0  34.6875 23.22916666666666 0  97.5 72.5 0  88.91025641025641 71.41025641025641 0  101.591798008198 59.77539402459409 0  82.36111111111111 47.91666666666666 0  68.1806390294541 40.45808291163771 0  37.88084981701691 72.05812209995953 0  76.7207000840295 17.56506392535849 0  55 73.75678223856679 0  103.764928201747 6.930547867525328 0  64.45989490129469 33.62900736838294 0  143.4615558010053 72.84342888700687 0  95.36483202491024 55.37984854519235 0  140.3402207868132 41.98704416476085 0  7.282161342235174 7.283898203062622 0  58.02759599894421 19.69972226086783 0  118.7755711837082 24.43064743883906 0  139.1854672887991 15.43546728879908 0  139.3916244756711 7.707121073144855 0  125 5.697593239906388 0  154.3413978494624 15 0  152.6019752220664 7.375177200681663 0  112.614903694564 39.15478391276105 0  7.045160455486543 32.21726190476191 0  152.9684017070325 22.25582561465356 0  97.10519643918053 23.80393318481981 0  18.55158261097978 63.80158261097977 0  5.413265306122449 65 0  154.7619047619048 35 0  49.98259895379135 37.759555354216 0  85 5.238406778613915 0  26.92362057383424 50.87748151054775 0  19.03536586738662 50.39706597770166 0  55 5.244994925495488 0  25.89413395373815 63.82948345768089 0  66.48137027262791 19.69946386506378 0  154.7869004830367 45 0  73.2956015301495 6.726190476190478 0  50.04518972145341 63.54647215803456 0  63.75561778348582 63.50689277606964 0  83.92914811448523 16.39909680979578 0  14.68816721719565 74.52945928479103 0  133.4944485726585 29.92111193675392 0  127.0270255538113 39.02401665794522 0  77.97387058440816 38.21310270346916 0  0 75 0  5 80 0  6.790816326530612 72.5 0  50.00868063192392 52.15547035335699 0  73.43801679906244 53.8445110700541 0  38.39929470623247 56.80479116512505 0  143.7244897959184 58.11224489795919 0  82.26160897951739 32.6713911452722 0  72.53566074414718 66.33649513624577 0  108.7016387209112 53.03551699329853 0  115 80 0  111.6312870529738 72.93435647351311 0  118.6238287905396 31.26536185024685 0  51.64264503573011 11.07705746845138 0  82.35160715222065 73.52311756069425 0  146.9333037135326 48.63339257293487 0  36.28782636855107 32.88137442977038 0  5.240483190185216 45.77161150090433 0  76.55498462281547 61.05249916248297 0  126.7194522684794 14.40917932784709 0  63.50119994715058 56.59729628005785 0  145.9652227467754 6.28447706427559 0  97.53746150406226 35.92440452630401 0  87.39740272220644 28.52800951952332 0  55.46012298051971 59.38338554027185 0  58.24942571748819 46.35207867955695 0  14.95133916948711 26.611543217912 0  110.5111597455814 66.50557987279069 0  26.015625 74.86111111111111 0  145.8386918011916 35.54633879389873 0  121.8244639628003 46.34705358936824 0  15.97415553749786 56.28669614513793 0  6.067344072757668 52.70767592909472 0  94.36929644625216 17.06118565274158 0  38.44159898029007 45.33743788718437 0  30.86961159258458 45.32771385217955 0  87.84717357778067 65.1312391000418 0  134.9786599089822 45.77309913174528 0  124.0933286816116 58.49883001043925 0  39.38396418511827 6.558017907440864 0  160 75 0  61.46948097221448 73.69935658621336 0  99.77595811440618 45.14381053560564 0  135 0 0  54.19231742030878 24.62238203919016 0  48.00112862595474 26.55581185896966 0  114.7409063223218 55.16495819209668 0  133.1951583278632 16.91148651410604 0  115.4474610315334 14.11502730878669 0  112.1605527710757 6.045977779743317 0  107.2276314340747 17.4480807450609 0  44.43662865878454 34.74223666672275 0  91.07084666933464 36.18609586891301 0  87.36625641542776 44.61076351380196 0  76.12062843919414 28.65331620276531 0  68.26756791823588 28.9614861891026 0  43.09016420198964 74.92177623726967 0  59.08728745496872 30.67745105621049 0  64.17421560117688 12.55338805689485 0  134.2919509206113 51.68487084886727 0  105.6982693025658 44.91748277932584 0  113.087346951348 26.00452646812954 0  55.63238987001323 36.01335578767866 0  11.88488953253733 19.8612266342491 0  107.75628691108 35.94795408356521 0  117.2577199434167 74.58769991123722 0  63.85234280438041 44.47893053769432 0  123.1124323526829 66.97883295933407 0  43.21890095930996 23.26207925455153 0  122.8962780194934 35.0679525483637 0  131.3685840118664 74.17917304169832 0  51.49360851623199 69.1509687536475 0  116.6513821776451 48.8145829077119 0  35.04400704667727 67.16691108533134 0  48.78203776771698 74.4171080359375 0  20.66178669132212 6.028324222138419 0  19.71780335167416 11.93970521563188 0  24.21392742002452 15.52625712181468 0  49.09041795245825 5.795208976229125 0  82.99126984126985 60.85873015873016 0  85.13888888888889 52.77777777777777 0  32.76343054581602 74.86111111111111 0  47.6065662852436 14.9467168573782 0  100.908201991802 65.68359601639607 0  102.5 75 0  40 12.5 0  155 57.5 0  154.1768471843557 50.85369436871144 0  155 80 0  130.1158029746924 68.70881465065135 0  133.5778374700582 64.12152074210607 0  139.2886395223132 64.56439075047574 0  128.6574427266953 33.33345727429305 0  96.32014919123017 49.72304762033837 0  132.5 5.115509227608756 0  25 0 0  149.5926639942433 17.8592292201945 0  107.8770119196571 27.86857284105351 0  27.90049439197167 5.05159140102322 0  30.2894406729634 12.21843024399842 0  18.88048562542535 22.79837091329794 0  45 0 0  115.8638205587976 43.45363122705552 0  53.87354757531059 16.10041987280661 0  105.7062138447582 63.24509181910022 0  77.29119361807091 49.96481822317554 0  144.5858634281453 27.3551853627357 0  79.99406043531211 43.14329720823346 0  139.3081119348083 36.63466599635863 0  95 80 0  155.15625 67.34375 0  65 80 0  92.5 75.31883849980865 0  138.5772575901466 74.89639088400126 0  27.9213743053455 56.33262203662795 0  61.76269814474262 68.38393244073208 0  69.98932919116852 74.48412792953894 0  0 35 0  38.62882509403016 37.75823196258695 0  154.7619047619048 27.69173273894861 0  13.27692049160078 62.38614272730547 0  44.8329015697868 64.38717517300117 0  71.63968515558899 18.81767894185224 0  155 0 0  160 5 0  122.9749403873669 10.62277185229854 0  131.6697015706627 24.98479050032123 0  99.23245028010682 19.01436481657935 0  85.09863484024307 10.48025887596853 0  79.83041089175953 5.16729598793754 0  74.85489830338629 11.66065298257996 0  131.4140114117337 41.76410814849226 0  125.3510974746874 50.29816236319723 0  123.9497739402538 23.55962190257666 0  69.55856115832559 45.77958010891886 0
[...]
<PointData  Vectors="displacements"> 
<DataArray  type="Float64"  Name="displacements"  NumberOfComponents="3" format="ascii">0.0000000000000000e+00 0.0000000000000000e+00 0.0000000000000000e+00  0.0000000000000000e+00 0.0000000000000000e+00 0.0000000000000000e+00  -3.2223677214336469e+01 -1.3172950823927633e+02 0.0000000000000000e+00  3.1235179220548670e+01 -1.3146347682853877e+02 0.0000000000000000e+00  -2.0556562320717955e+01 -5.1653459341040708e+01 0.0000000000000000e+00  2.0839439815058455e+01 -5.2634817812255605e+01 0.0000000000000000e+00  -1.1524778529801072e+01 -2.4780038909694092e+01 0.0000000000000000e+00  1.1643382444380142e+01 -2.4849568560701492e+01 0.0000000000000000e+00  0.0000000000000000e+00 0.0000000000000000e+00 0.0000000000000000e+00  2.2762612744797328e-01 -1.3522126402423689e+02 0.0000000000000000e+00  2.7586867010456753e+01 -9.2867394053469638e+01 0.0000000000000000e+00  -2.8693511066034876e+01 -9.1951333969258101e+01 0.0000000000000000e+00  -3.7471030278603529e-01 -3.2342587388475877e+01 0.0000000000000000e+00  -7.5650529076117358e-03 -9.1442069103562957e+01 0.0000000000000000e+00  2.3995450845557706e+00 -1.7696062934266362e+01 0.0000000000000000e+00  4.1436572865683088e+00 -5.8079187474948185e+01 0.0000000000000000e+00  -2.0891784222747605e+00 -1.3015410056802676e+01 0.0000000000000000e+00  -1.6710815090402097e+01 -1.3215974552466704e+02 0.0000000000000000e+00  -3.1955681569627700e+01 -1.1323980498347404e+02 0.0000000000000000e+00  1.6412803865692620e+01 -1.3210401969529460e+02 0.0000000000000000e+00  3.0826347814004585e+01 -1.1334625133009783e+02 0.0000000000000000e+00  -2.3820381528414348e+01 -7.0614788907479038e+01 0.0000000000000000e+00  -5.9479038009798062e+00 -4.9065819765329067e+01 0.0000000000000000e+00  -1.5931756309099809e+01 -3.8089479023663671e+01 0.0000000000000000e+00  -1.1784187140420691e+01 -1.0857128434100770e+02 0.0000000000000000e+00  1.2018234204029159e+00 -2.5123216971092479e+01 0.0000000000000000e+00  8.9349253794976544e+00 -4.1175411097393145e+01 0.0000000000000000e+00  -6.6746596098925597e+00 -7.4519555935774093e+01 0.0000000000000000e+00  6.8474826787644885e+00 -1.1206504977062400e+02 0.0000000000000000e+00  -2.7265120000586665e+00 -2.8049796534226729e+01 0.0000000000000000e+00  2.4622059490941030e+01 -7.1482423486404244e+01 0.0000000000000000e+00  9.5426522006368142e+00 -8.1842001336793643e+01 0.0000000000000000e+00  -7.7024547925158027e+00 -1.2171475790680860e+01 0.0000000000000000e+00  0.0000000000000000e+00 0.0000000000000000e+00 0.0000000000000000e+00  0.0000000000000000e+00 0.0000000000000000e+00 0.0000000000000000e+00  7.4721775711808514e+00 -1.1773007231397367e+01 0.0000000000000000e+00  1.6188395617358175e+01 -3.8858846239350086e+01 0.0000000000000000e+00  1.5097849321246160e+01 -1.0009752264813110e+02 0.0000000000000000e+00  -9.4385178778558902e+00 -4.3443916218381872e+01 0.0000000000000000e+00  -1.3702451929865743e+01 -9.1806003945675201e+01 0.0000000000000000e+00  -1.6216217597786078e+00 -2.4129775839165131e+01 0.0000000000000000e+00  -1.2344254721776199e+01 -5.9543369224694608e+01 0.0000000000000000e+00  1.5152709566549631e+00 -9.4083074213541291e+00 0.0000000000000000e+00  1.0998876785455597e+01 -6.5258395333872002e+01 0.0000000000000000e+00  5.8012689975838894e-01 -8.4853908127582258e+00 0.0000000000000000e+00  -1.8418733399967879e+00 -2.0624513843463614e+01 0.0000000000000000e+00  -2.6066129194620585e-01 -7.3678858919074486e+01 0.0000000000000000e+00  1.7812382831449596e+00 -4.2794328202716876e+01 0.0000000000000000e+00  1.8802567676373016e+01 -1.1781964044783201e+02 0.0000000000000000e+00  -8.5731057944838156e+00 -1.2215406201437996e+02 0.0000000000000000e+00  -1.2389742701501611e+00 -1.4689202896183314e+01 0.0000000000000000e+00  -1.0011080587021386e+00 -6.6334116638119838e+00 0.0000000000000000e+00  2.7332263203011462e+00 -1.7333623769319377e+01 0.0000000000000000e+00  -4.4150259277512269e+00 -3.4344455792094365e+01 0.0000000000000000e+00  -3.1579371300676029e-01 -5.8667476718002032e+00 0.0000000000000000e+00  -2.1352812196678133e+01 -1.2005389166122946e+02 0.0000000000000000e+00  -1.9539062898209730e-01 -1.0522917322761822e+02 0.0000000000000000e+00  -2.5599945528297109e+01 -8.1308687625152118e+01 0.0000000000000000e+00  5.7346601304821281e+00 -3.5341705072116682e+01 0.0000000000000000e+00  2.4700860628426859e+00 -3.1267378960758890e+01 0.0000000000000000e+00  -2.1061818195089398e+01 -1.0433000278443043e+02 0.0000000000000000e+00  -3.5792168017958148e+00 -6.2714194866769695e+01 0.0000000000000000e+00  1.2058462781362520e+01 -5.2431573823673425e+01 0.0000000000000000e+00  -1.3574523163536616e+00 -2.0107001362399657e+01 0.0000000000000000e+00  6.0664706606849927e+00 -9.2579027666907592e+01 0.0000000000000000e+00  -5.0174105015943251e+00 -5.4955688725137755e+00 0.0000000000000000e+00  -5.5058868059284318e+00 -9.5934836904368609e+01 0.0000000000000000e+00  -5.2597655179635738e-01 -5.2173101916915016e+01 0.0000000000000000e+00  -1.6050378185566448e+01 -8.0594002504083448e+01 0.0000000000000000e+00  -2.2433164033125501e+00 -8.2139909936881011e+01 0.0000000000000000e+00  5.6408822865823165e+00 -2.7752073827401869e+01 0.0000000000000000e+00  -2.7224254762284237e+00 -4.0204594529207469e+01 0.0000000000000000e+00  7.0593981358165552e+00 -4.9232452538590586e+01 0.0000000000000000e+00  4.0138504389102856e+00 -7.2607513927347739e+01 0.0000000000000000e+00  1.6603144302619512e+01 -7.6755364729101586e+01 0.0000000000000000e+00  -1.4076333207730204e-01 -2.4275222428393260e+01 0.0000000000000000e+00  -7.9918973283452113e+00 -3.5829634226879108e+01 0.0000000000000000e+00  1.7298785155122033e+01 -8.9779718880890300e+01 0.0000000000000000e+00  1.8488137296825940e+01 -4.5643677863556562e+01 0.0000000000000000e+00  -5.7513501169354511e+00 -2.7142601857471860e+01 0.0000000000000000e+00  1.7115040129963228e+00 -1.2067523626504543e+02 0.0000000000000000e+00  1.2513181514275413e+01 -1.2283673657108092e+02 0.0000000000000000e+00  0.0000000000000000e+00 0.0000000000000000e+00 0.0000000000000000e+00  2.0412484074334838e+00 -8.2697662900415864e+01 0.0000000000000000e+00  -1.5181880134223500e+00 -2.9093276293373716e+01 0.0000000000000000e+00  2.3305427921972949e+01 -6.0977359530431933e+01 0.0000000000000000e+00  -9.5430351193811020e+00 -1.8361611472507917e+01 0.0000000000000000e+00  -3.0561674656452205e+00 -1.4987532250975930e+01 0.0000000000000000e+00  2.3029156432062560e+01 -1.3141321335177807e+02 0.0000000000000000e+00  3.1267791202223130e+01 -1.2281901036915819e+02 0.0000000000000000e+00  2.1744289164631487e+00 -1.0028367308943692e+02 0.0000000000000000e+00  2.1625678846062254e+01 -1.0868922687096165e+02 0.0000000000000000e+00  -1.3237226932015309e+01 -5.0574875310840788e+01 0.0000000000000000e+00  2.5571167471736871e+01 -8.2243490188555370e+01 0.0000000000000000e+00  1.3898665033879295e+01 -3.1819346436932882e+01 0.0000000000000000e+00  -3.0745027653769444e+01 -1.0279252990870536e+02 0.0000000000000000e+00  -3.2297059100047854e+01 -1.2296276298436800e+02 0.0000000000000000e+00  -1.3701056806558803e+01 -3.1545634108677362e+01 0.0000000000000000e+00  9.4482486546448623e+00 -1.8025345955980743e+01 0.0000000000000000e+00  0.0000000000000000e+00 0.0000000000000000e+00 0.0000000000000000e+00  -1.0072481375921349e+01 -1.3440984850905244e+02 0.0000000000000000e+00  0.0000000000000000e+00 0.0000000000000000e+00 0.0000000000000000e+00  -2.2745840589570236e+01 -6.0405170024238778e+01 0.0000000000000000e+00  -1.8221483721847051e+01 -4.4600164310437719e+01 0.0000000000000000e+00  4.8374582151230161e+00 -5.3982208014059649e+00 0.0000000000000000e+00  0.0000000000000000e+00 0.0000000000000000e+00 0.0000000000000000e+00  -2.3809304191129939e+01 -1.3166688075718986e+02 0.0000000000000000e+00  1.0968456187136939e+01 -4.2496969828889341e+01 0.0000000000000000e+00  9.9320587291409907e+00 -1.3404792097723586e+02 0.0000000000000000e+00  2.9591134904115776e+01 -1.0330436904099288e+02 0.0000000000000000e+00  -1.2861097390476106e+01 -7.0088335047830526e+01 0.0000000000000000e+00  -1.9532845678155392e-01 -1.8538552890768550e+01 0.0000000000000000e+00  1.1964169118012924e+00 -4.7273324883519621e+00 0.0000000000000000e+00  -2.3167292267930435e+00 -4.6423140941354939e+00 0.0000000000000000e+00  4.3666548468234767e+00 -3.7101061083741392e+01 0.0000000000000000e+00  1.9158929795374700e+00 -3.3177398019971913e+00 0.0000000000000000e+00  -2.0682361613362263e+00 -8.1302040065565624e+00 0.0000000000000000e+00  -6.7959279661933920e-03 -2.8206230366399822e+01 0.0000000000000000e+00  -6.2639867555373729e-01 -1.9608839089933735e+01 0.0000000000000000e+00  -7.3432119655270220e+00 -5.7970351790121804e+01 0.0000000000000000e+00  -6.5911692273591900e+00 -4.1802485419251056e+01 0.0000000000000000e+00  1.3405166312339789e+01 -1.0906208067113424e+02 0.0000000000000000e+00  2.5020286778706207e+00 -1.1793920487762323e+01 0.0000000000000000e+00  5.3252558319098064e-01 -6.3220837743782866e+01 0.0000000000000000e+00  6.5194946392701170e-01 -1.5953208067545503e+01 0.0000000000000000e+00  2.0763743739056881e+00 -1.2191797220240451e+01 0.0000000000000000e+00  8.4881392201880992e+00 -5.7013929546337636e+01 0.0000000000000000e+00  8.8853965909529418e+00 -1.0132155505154792e+02 0.0000000000000000e+00  -1.4408409825349164e+01 -1.1819631506107650e+02 0.0000000000000000e+00  -5.8513133926803569e+00 -1.1261598473001928e+02 0.0000000000000000e+00  -1.0121045677832784e+01 -8.3332907909681865e+01 0.0000000000000000e+00  -1.9959183537825794e+01 -8.9317669227607041e+01 0.0000000000000000e+00  -1.2172025761993524e+01 -9.9798661029847835e+01 0.0000000000000000e+00  -3.7501764787877928e-01 -2.4115575064796261e+01 0.0000000000000000e+00  -2.8840842612116591e+00 -7.3739350194604981e+01 0.0000000000000000e+00  2.1026133217318286e+01 -9.8024067908964881e+01 0.0000000000000000e+00  1.4476817119936354e+00 -2.2484021825807744e+01 0.0000000000000000e+00  1.4544493870586443e+01 -4.8522214404118593e+01 0.0000000000000000e+00  -1.2703921309116781e+01 -4.0715659238202484e+01 0.0000000000000000e+00  1.1317503833324524e+01 -9.0180249938005289e+01 0.0000000000000000e+00  -2.1474417970855963e-01 -5.5233181621589145e+00 0.0000000000000000e+00  -4.9709331462864681e-01 -1.0255313061696276e+01 0.0000000000000000e+00  5.7938983822320889e-01 -1.4327846147284891e+01 0.0000000000000000e+00  -1.7953391059130745e+01 -6.5228410377455958e+01 0.0000000000000000e+00  -5.2419709996733292e+00 -1.9579893560780466e+01 0.0000000000000000e+00  1.7885115978748491e+01 -1.2544091309720062e+02 0.0000000000000000e+00  2.3957525593055525e+01 -1.2394478445919029e+02 0.0000000000000000e+00  -2.2259749409415863e+00 -2.4657441709292090e+01 0.0000000000000000e+00  1.4985519579502238e-01 -2.0454759197003561e+01 0.0000000000000000e+00  1.7538358950063117e+01 -6.8566105856549228e+01 0.0000000000000000e+00  1.5629721411374673e+01 -5.9192285362345451e+01 0.0000000000000000e+00  7.8197051674244751e+00 -7.2712693512335420e+01 0.0000000000000000e+00  3.2847586967874549e+00 -4.9735757875083443e+01 0.0000000000000000e+00  -8.6960295140738678e-02 -3.7185944591751870e+01 0.0000000000000000e+00  5.4627197647226309e+00 -2.2581213738776956e+01 0.0000000000000000e+00  -9.5793790032244512e+00 -4.6609404338628629e+01 0.0000000000000000e+00  1.0609758222736106e+01 -3.4720912383740782e+01 0.0000000000000000e+00  -1.8700925531032677e+01 -7.4305714100958440e+01 0.0000000000000000e+00  -2.4771213943752786e+00 -3.4851930455403583e+01 0.0000000000000000e+00  2.4702624874222458e+01 -1.1646636183228340e+02 0.0000000000000000e+00  5.9553477114949773e+00 -6.4415147604749876e+01 0.0000000000000000e+00  1.3040815004544788e+00 -1.1229525434056643e+02 0.0000000000000000e+00  -8.4336294780645238e-01 -2.9137205447195966e+00 0.0000000000000000e+00  -4.1196658996398892e+00 -3.1820161893985954e+01 0.0000000000000000e+00  -7.8919266336202787e+00 -8.9670258512192930e+01 0.0000000000000000e+00  -1.8684576156215225e+01 -1.1167719843858703e+02 0.0000000000000000e+00  -2.4698078241146007e+01 -1.1230986460943771e+02 0.0000000000000000e+00  -2.3909518251540511e+01 -9.6875475112761222e+01 0.0000000000000000e+00  -2.0094759623279113e+01 -1.2720036794873388e+02 0.0000000000000000e+00  -2.5895145375267539e+01 -1.2535239383053154e+02 0.0000000000000000e+00  -2.6094677533068572e-01 -8.3669239005717230e+01 0.0000000000000000e+00  2.5612088370919689e-01 -4.3532795377860491e+00 0.0000000000000000e+00  -1.5888823853371708e+01 -1.2658029171169780e+02 0.0000000000000000e+00  -6.0225483534600759e+00 -6.6843517749816357e+01 0.0000000000000000e+00  -8.9654958823657049e-01 -1.0096569769733556e+01 0.0000000000000000e+00  -1.7879961720228774e+00 -1.9259857221864258e+00 0.0000000000000000e+00  -4.8928681265195202e+00 -1.2801424785401247e+02 0.0000000000000000e+00  -7.4211570749116962e-01 -2.7663609212798342e+01 0.0000000000000000e+00  -1.7460718626876194e+01 -5.5192905927338607e+01 0.0000000000000000e+00  -2.7335989194580912e+00 -1.5764523472971073e+01 0.0000000000000000e+00  -2.1995201174991288e+00 -1.1397948792390867e+01 0.0000000000000000e+00  -1.1370620174448124e+01 -3.4354017827638813e+01 0.0000000000000000e+00  1.5344242855970477e-01 -1.5049084398641076e+01 0.0000000000000000e+00  -8.2470839755541121e+00 -3.8227058460091186e+01 0.0000000000000000e+00  5.1926888812192331e+00 -1.2796068816228163e+02 0.0000000000000000e+00  -1.4243383263087788e+01 -4.6277499056121769e+01 0.0000000000000000e+00  3.1275516836598234e+00 -2.9041173998901762e+01 0.0000000000000000e+00  5.8102160220238073e+00 -3.9599107302866948e+01 0.0000000000000000e+00  -1.0178459942140114e+01 -5.2899617649947785e+01 0.0000000000000000e+00  3.2468777921159822e+00 -7.8647572796750103e+00 0.0000000000000000e+00  -5.8887057593346173e+00 -1.0493681667621391e+02 0.0000000000000000e+00  1.2804864552777215e-01 -9.8499546606176708e+01 0.0000000000000000e+00  -8.6137385755086837e-01 -4.4045433581333214e+01 0.0000000000000000e+00  0.0000000000000000e+00 0.0000000000000000e+00 0.0000000000000000e+00  2.7674358552967826e+00 -2.4839927177400800e+00 0.0000000000000000e+00  7.0965486333452099e-01 -2.5953012391853911e+00 0.0000000000000000e+00  1.0452530434147340e+00 -2.7347129354660609e+01 0.0000000000000000e+00  6.2253629384165521e+00 -4.2882734342942619e+01 0.0000000000000000e+00  9.6218387433656946e-02 -2.1844094329312277e+01 0.0000000000000000e+00  1.3648831783857482e+01 -1.1623033478410620e+02 0.0000000000000000e+00  -3.0805631474860418e+00 -4.8515871965989128e+01 0.0000000000000000e+00  1.0126044547308348e+01 -4.6042511345524360e+01 0.0000000000000000e+00  4.1768184914221873e+00 -8.0293003088455436e+01 0.0000000000000000e+00  2.6343767135555478e+01 -8.7474759713668078e+01 0.0000000000000000e+00  1.9890690472126728e+01 -8.3840286531920583e+01 0.0000000000000000e+00  -2.5328639271721691e+00 -8.9304477803928535e+01 0.0000000000000000e+00  -6.6691029834515936e+00 -3.1415484882019371e+01 0.0000000000000000e+00  1.6596089961245333e+01 -5.3755485773786738e+01 0.0000000000000000e+00  7.0031624970615827e+00 -1.1929901883214710e+02 0.0000000000000000e+00  1.5258346833412786e+00 -2.1224670110853811e+01 0.0000000000000000e+00  -2.9956072609983220e-01 -3.2829686069663815e+00 0.0000000000000000e+00  9.5303195010273232e+00 -4.7105982062755196e+01 0.0000000000000000e+00  -1.6894681461779907e+01 -9.8245763878335225e+01 0.0000000000000000e+00  4.7973304539958566e+00 -3.5258747613578002e+01 0.0000000000000000e+00  -2.6538770436589587e+01 -1.1904019758823956e+02 0.0000000000000000e+00  -1.5288258468048141e+00 -6.7261193844306206e+01 0.0000000000000000e+00  -4.5566447953353109e+00 -5.4072610993788373e+01 0.0000000000000000e+00  3.1761654224531255e+00 -3.0302984390684479e+01 0.0000000000000000e+00  1.1366919589983624e+00 -3.1448958790792982e+01 0.0000000000000000e+00  1.7217905879831461e+00 -8.1586534927043228e+00 0.0000000000000000e+00  1.4582767938506981e+01 -8.2572301152046620e+01 0.0000000000000000e+00  5.4185946556255269e+00 -1.5119448408286834e+01 0.0000000000000000e+00  -3.3630104612320824e+00 -1.1801525538488720e+02 0.0000000000000000e+00  1.3881170949205182e+00 -9.3495024336436970e+01 0.0000000000000000e+00  -2.6195866146989140e+00 -8.2632966637604550e+00 0.0000000000000000e+00  -6.5776949077567548e-01 -3.5454354202521294e+00 0.0000000000000000e+00  -9.4552808822375027e+00 -6.4118033444638598e+01 0.0000000000000000e+00  -1.6581043726387972e+00 -2.1870558331732539e+01 0.0000000000000000e+00  -2.2614157698708861e+00 -1.8009571160816563e+01 0.0000000000000000e+00  1.1349806496397838e+01 -5.7404954713450152e+01 0.0000000000000000e+00  2.8906861855308188e+00 -1.0684440250226631e+02 0.0000000000000000e+00  1.0759063320289712e+01 -9.6124010382393507e+01 0.0000000000000000e+00  -6.9302473972175305e+00 -2.3807559747022754e+01 0.0000000000000000e+00  2.7026573850184015e+01 -1.3143997261747393e+02 0.0000000000000000e+00  1.2210329815334756e+01 -3.9221394215613927e+01 0.0000000000000000e+00  1.7397916850487825e+00 -6.9995237626230477e+01 0.0000000000000000e+00  -3.1471588598659487e+01 -1.0808065640612010e+02 0.0000000000000000e+00  -2.5085372737554352e+00 -2.9726797931596590e+01 0.0000000000000000e+00  -1.3710743176465181e+00 -2.7053168406003362e+01 0.0000000000000000e+00  6.8010036800235953e+00 -8.6589765599354664e+01 0.0000000000000000e+00  -1.6018530429247171e+01 -1.0499433595378132e+02 0.0000000000000000e+00  -1.5309711975303021e+01 -8.6485446733597541e+01 0.0000000000000000e+00  -2.0852721248235547e+01 -8.3218080109375137e+01 0.0000000000000000e+00  -1.1300454041837170e+01 -7.7630763448833548e+01 0.0000000000000000e+00  2.6463610295373324e-01 -2.5414755456563690e+01 0.0000000000000000e+00  -1.4643871757164195e+00 -5.9272765930719260e+01 0.0000000000000000e+00  1.6147317079382357e+00 -5.4773808665645390e+01 0.0000000000000000e+00  -4.6754485849620933e+00 -4.4181621472495344e+01 0.0000000000000000e+00  -4.4674793498213425e+00 -3.7759067489958454e+01 0.0000000000000000e+00  8.7514597923592561e+00 -2.6531081565276480e+01 0.0000000000000000e+00  -2.5652100485376579e+00 -3.1928714385636596e+01 0.0000000000000000e+00  -8.6986446758096818e+00 -3.9675308364218878e+01 0.0000000000000000e+00  7.2864306549262299e+00 -1.0630164138800538e+02 0.0000000000000000e+00  1.6055485259503759e+00 -7.6589268299217267e+01 0.0000000000000000e+00  -5.6112252135850884e+00 -8.3595771206865322e+01 0.0000000000000000e+00  -1.2137046596138279e+00 -3.0293560908151903e+01 0.0000000000000000e+00  4.2432996493490620e+00 -5.3732306568009873e+00 0.0000000000000000e+00  -1.3618578025532422e+00 -7.8400442731962684e+01 0.0000000000000000e+00  2.1901603852489824e+01 -8.9613103807822355e+01 0.0000000000000000e+00  1.3809092687307267e+00 -3.4535697871085532e+01 0.0000000000000000e+00  1.6779874320016447e+01 -9.5357214457316061e+01 0.0000000000000000e+00  -1.1767516894657266e+00 -2.4925954976818417e+01 0.0000000000000000e+00  -2.5487109508316158e-01 -9.3606682358671463e+01 0.0000000000000000e+00  2.4138016126365336e+01 -1.0433745134115600e+02 0.0000000000000000e+00  6.6921800740462780e+00 -3.1808131554896580e+01 0.0000000000000000e+00  2.6307973334854142e+00 -8.8536093202924619e+01 0.0000000000000000e+00  1.9601137711465844e+00 -2.0197743240501968e+01 0.0000000000000000e+00  9.7618313445378568e+00 -3.0434523411004818e+01 0.0000000000000000e+00  -4.3004257498284106e+00 -1.2133846159245099e+01 0.0000000000000000e+00  -1.2775993875612988e+00 -1.1211258917667513e+01 0.0000000000000000e+00  -4.9431899185471112e-01 -1.4213854859262529e+01 0.0000000000000000e+00  -9.5562857638227943e+00 -3.0357608419616817e+01 0.0000000000000000e+00  9.4858747088243707e+00 -5.2444381093010790e+01 0.0000000000000000e+00  5.6731049875717572e+00 -5.3000335380211375e+01 0.0000000000000000e+00  6.4848806275531423e+00 -1.9393283140371231e+01 0.0000000000000000e+00  -3.5181320438907204e+00 -2.7622720279941298e+01 0.0000000000000000e+00  1.2372495565327231e+01 -7.2138764205079909e+01 0.0000000000000000e+00  2.0340174461022468e+01 -7.4125296535525294e+01 0.0000000000000000e+00  -3.2638