<?xml version="1.0"?>
<VTKFile type="UnstructuredGrid"  version="0.1"  >
<UnstructuredGrid>
<Piece  NumberOfPoints="1718" NumberOfCells="3242">
<Points>
<DataArray  type="Float64"  NumberOfComponents="3"  format="ascii">0 80 0  0 0 0  160 0 0  160 80 0  80 0 0  80 80 0  40 0 0  40 80 0  0 40 0  160 40 0  120 80 0  120 0 0  60 40 0  120 40 0  30 30 0  90 50 0  22.5 57.5 0  160 20 0  140 0 0  160 60 0  140 80 0  100 0 0  81.42857142857143 25.71428571428572 0  60 0 0  136.6666666666667 23.33333333333333 0  45.43478260869566 57.71739130434783 0  70 60 0  104.448051948052 22.77597402597402 0  140 50 0  50 20 0  100 80 0  110 60 0  20 0 0  0 20 0  0 60 0  20 80 0  60 80 0  127.8571428571429 63.57142857142857 0  70 13.45238095238095 0  120.6595411700269 17.14794678331409 0  43.03396957219624 40.89809128341126 0  90 12.34126984126984 0  17.5 17.5 0  95 65 0  14.375 33.125 0  35 15 0  103.1835960163961 39.55078804918819 0  75 45 0  145 65 0  149.5238095238095 30 0  24.53125 43.28125 0  11.328125 48.64955357142857 0  30 69.72222222222223 0  63.03099500669833 25.98450249665083 0  12.25 67.75 0  147.0833333333333 12.91666666666667 0  133.8888888888889 37.22222222222222 0  110 0 0  57.05142935931612 66.02571467965807 0  57.64988715017596 52.91363088739458 0  132.3087800602433 10.80601619908237 0  93.72429196772013 30.40269913090983 0  81.66666666666667 66.66666666666667 0  34.88420512826108 50.64239923514752 0  120.7142857142857 52.85714285714285 0  10 0 0  124.9637655733977 28.70771675587721 0  85.34568206369326 38.9629538089202 0  109.7947831303933 12.01464342601455 0  111.8057601301571 31.76564834986395 0  45.72175790179101 69.59146799301371 0  72.34067302477537 33.39927196063941 0  80.27777777777779 55.55555555555556 0  101.8164039836039 51.36719203279213 0  105 70 0  41.96603042780376 28.93206085560751 0  58.34561938654466 11.67280969327233 0  117.5396825396825 68.73015873015873 0  70 80 0  45 10 0  148.3556547619048 41.71130952380953 0  150 55 0  0 10 0  111.4124276895163 46.49018363820046 0  52.95762497245369 30.73936459826795 0  90 80 0  30 0 0  25.34090909090909 9.886363636363637 0  160 70 0  150 80 0  128.4183673469388 45.98072562358276 0  135.9266409266409 70.3088803088803 0  79.85780423280423 10.33730158730159 0  110 80 0  50 80 0  130 0 0  150 0 0  50 0 0  30 80 0  0 50 0  160 30 0  0 30 0  90 0 0  70 0 0  10 80 0  0 70 0  160 10 0  66.77723403763051 70 0  160 50 0  130 80 0  99.92447862208631 13.81953365169224 0  32.01559780278829 60.0731306412183 0  8.614130434782609 25 0  9.650135782421287 58.30301118262442 0  67.12362677655815 50.70787559218606 0  8.214285714285714 15 0  15 8.201530612244898 0  51.76701208687312 45.1723637175896 0  33.40645193878068 39.16920079832146 0  89.97787543000702 21.76052370832911 0  72.20291993689739 24.02042087891826 0  136.8367346938776 59.38775510204081 0  20.88888888888889 70.86111111111111 0  94.18293562798873 41.73617263361575 0  26.875 20.625 0  21.40625 27.65625 0  88.58333333333334 58.80555555555556 0  129.2756871534741 54.88763713577917 0  145.5952380952381 21.8452380952381 0  140.6642164695856 31.35506551613934 0  112.6093449587678 20.12196714318102 0  118.023549624076 8.662674837383332 0  128.4336201974832 20.8345196306986 0  43.34115799897627 49.43524063307726 0  103.4084667387001 31.13267516613812 0  125.7248137350178 72.20359572400389 0  39.58608602010001 63.79925007322822 0  75.18319879588159 72.62706651615187 0  65.06400234143457 6.726190476190476 0  118.1349206349206 60.59523809523809 0  8.883403066944267 40.10847913997437 0  16.89704082318838 40.75920917681162 0  23.9453125 35.2734375 0  95 6.170634920634919 0  32.84902597402598 7.383658008658007 0  152.5 62.5 0  151.25 71.25 0  42.5 17.5 0  34.6875 23.22916666666666 0  97.5 72.5 0  88.91025641025641 71.41025641025641 0  101.591798008198 59.77539402459409 0  82.36111111111111 47.91666666666666 0  68.1806390294541 40.45808291163771 0  37.88084981701691 72.05812209995953 0  76.7207000840295 17.56506392535849 0  55 73.75678223856679 0  103.764928201747 6.930547867525328 0  64.45989490129469 33.62900736838294 0  143.4615558010053 72.84342888700687 0  95.36483202491024 55.37984854519235 0  140.3402207868132 41.98704416476085 0  7.282161342235174 7.283898203062622 0  58.02759599894421 19.69972226086783 0  118.7755711837082 24.43064743883906 0  139.1854672887991 15.43546728879908 0  139.3916244756711 7.707121073144855 0  125 5.697593239906388 0  154.3413978494624 15 0  152.6019752220664 7.375177200681663 0  112.614903694564 39.15478391276105 0  7.045160455486543 32.21726190476191 0  152.9684017070325 22.25582561465356 0  97.10519643918053 23.80393318481981 0  18.55158261097978 63.80158261097977 0  5.413265306122449 65 0  154.7619047619048 35 0  49.98259895379135 37.759555354216 0  85 5.238406778613915 0  26.92362057383424 50.87748151054775 0  19.03536586738662 50.39706597770166 0  55 5.244994925495488 0  25.89413395373815 63.82948345768089 0  66.48137027262791 19.69946386506378 0  154.7869004830367 45 0  73.2956015301495 6.726190476190478 0  50.04518972145341 63.54647215803456 0  63.75561778348582 63.50689277606964 0  83.92914811448523 16.39909680979578 0  14.68816721719565 74.52945928479103 0  133.4944485726585 29.92111193675392 0  127.0270255538113 39.02401665794522 0  77.97387058440816 38.21310270346916 0  0 75 0  5 80 0  6.790816326530612 72.5 0  50.00868063192392 52.15547035335699 0  73.43801679906244 53.8445110700541 0  38.39929470623247 56.80479116512505 0  143.7244897959184 58.11224489795919 0  82.26160897951739 32.6713911452722 0  72.53566074414718 66.33649513624577 0  108.7016387209112 53.03551699329853 0  115 80 0  111.6312870529738 72.93435647351311 0  118.6238287905396 31.26536185024685 0  51.64264503573011 11.07705746845138 0  82.35160715222065 73.52311756069425 0  146.9333037135326 48.63339257293487 0  36.28782636855107 32.88137442977038 0  5.240483190185216 45.77161150090433 0  76.55498462281547 61.05249916248297 0  126.7194522684794 14.40917932784709 0  63.50119994715058 56.59729628005785 0  145.9652227467754 6.28447706427559 0  97.53746150406226 35.92440452630401 0  87.39740272220644 28.52800951952332 0  55.46012298051971 59.38338554027185 0  58.24942571748819 46.35207867955695 0  14.95133916948711 26.611543217912 0  110.5111597455814 66.50557987279069 0  26.015625 74.86111111111111 0  145.8386918011916 35.54633879389873 0  121.8244639628003 46.34705358936824 0  15.97415553749786 56.28669614513793 0  6.067344072757668 52.70767592909472 0  94.36929644625216 17.06118565274158 0  38.44159898029007 45.33743788718437 0  30.86961159258458 45.32771385217955 0  87.84717357778067 65.1312391000418 0  134.9786599089822 45.77309913174528 0  124.0933286816116 58.49883001043925 0  39.38396418511827 6.558017907440864 0  160 75 0  61.46948097221448 73.69935658621336 0  99.77595811440618 45.14381053560564 0  135 0 0  54.19231742030878 24.62238203919016 0  48.00112862595474 26.55581185896966 0  114.7409063223218 55.16495819209668 0  133.1951583278632 16.91148651410604 0  115.4474610315334 14.11502730878669 0  112.1605527710757 6.045977779743317 0  107.2276314340747 17.4480807450609 0  44.43662865878454 34.74223666672275 0  91.07084666933464 36.18609586891301 0  87.36625641542776 44.61076351380196 0  76.12062843919414 28.65331620276531 0  68.26756791823588 28.9614861891026 0  43.09016420198964 74.92177623726967 0  59.08728745496872 30.67745105621049 0  64.17421560117688 12.55338805689485 0  134.2919509206113 51.68487084886727 0  105.6982693025658 44.91748277932584 0  113.087346951348 26.00452646812954 0  55.63238987001323 36.01335578767866 0  11.88488953253733 19.8612266342491 0  107.75628691108 35.94795408356521 0  117.2577199434167 74.58769991123722 0  63.85234280438041 44.47893053769432 0  123.1124323526829 66.97883295933407 0  43.21890095930996 23.26207925455153 0  122.8962780194934 35.0679525483637 0  131.3685840118664 74.17917304169832 0  51.49360851623199 69.1509687536475 0  116.6513821776451 48.8145829077119 0  35.04400704667727 67.16691108533134 0  48.78203776771698 74.4171080359375 0  20.66178669132212 6.028324222138419 0  19.71780335167416 11.93970521563188 0  24.21392742002452 15.52625712181468 0  49.09041795245825 5.795208976229125 0  82.99126984126985 60.85873015873016 0  85.13888888888889 52.77777777777777 0  32.76343054581602 74.86111111111111 0  47.6065662852436 14.9467168573782 0  100.908201991802 65.68359601639607 0  102.5 75 0  40 12.5 0  155 57.5 0  154.1768471843557 50.85369436871144 0  155 80 0  130.1158029746924 68.70881465065135 0  133.5778374700582 64.12152074210607 0  139.2886395223132 64.56439075047574 0  128.6574427266953 33.33345727429305 0  96.32014919123017 49.72304762033837 0  132.5 5.115509227608756 0  25 0 0  149.5926639942433 17.8592292201945 0  107.8770119196571 27.86857284105351 0  27.90049439197167 5.05159140102322 0  30.2894406729634 12.21843024399842 0  18.88048562542535 22.79837091329794 0  45 0 0  115.8638205587976 43.45363122705552 0  53.87354757531059 16.10041987280661 0  105.7062138447582 63.24509181910022 0  77.29119361807091 49.96481822317554 0  144.5858634281453 27.3551853627357 0  79.99406043531211 43.14329720823346 0  139.3081119348083 36.63466599635863 0  95 80 0  155.15625 67.34375 0  65 80 0  92.5 75.31883849980865 0  138.5772575901466 74.89639088400126 0  27.9213743053455 56.33262203662795 0  61.76269814474262 68.38393244073208 0  69.98932919116852 74.48412792953894 0  0 35 0  38.62882509403016 37.75823196258695 0  154.7619047619048 27.69173273894861 0  13.27692049160078 62.38614272730547 0  44.8329015697868 64.38717517300117 0  71.63968515558899 18.81767894185224 0  155 0 0  160 5 0  122.9749403873669 10.62277185229854 0  131.6697015706627 24.98479050032123 0  99.23245028010682 19.01436481657935 0  85.09863484024307 10.48025887596853 0  79.83041089175953 5.16729598793754 0  74.85489830338629 11.66065298257996 0  131.4140114117337 41.76410814849226 0  125.3510974746874 50.29816236319723 0  123.9497739402538 23.55962190257666 0  69.55856115832559 45.77958010891886 0
[...]
<PointData  Vectors="displacements"> 
<DataArray  type="Float64"  Name="displacements"  NumberOfComponents="3" format="ascii">0.0000000000000000e+00 0.0000000000000000e+00 0.0000000000000000e+00  0.0000000000000000e+00 0.0000000000000000e+00 0.0000000000000000e+00  -3.2223679505256264e+01 -1.3172950562727920e+02 0.0000000000000000e+00  3.1235167529241068e+01 -1.3146346542438553e+02 0.0000000000000000e+00  -2.0556561756776553e+01 -5.1653454279227937e+01 0.0000000000000000e+00  2.0839440956693043e+01 -5.2634810733595423e+01 0.0000000000000000e+00  -1.1524778042202264e+01 -2.4780037790419257e+01 0.0000000000000000e+00  1.1643382129077434e+01 -2.4849566405475837e+01 0.0000000000000000e+00  0.0000000000000000e+00 0.0000000000000000e+00 0.0000000000000000e+00  2.2764145974350800e-01 -1.3522126391642666e+02 0.0000000000000000e+00  2.7586865950255287e+01 -9.2867396229945754e+01 0.0000000000000000e+00  -2.8693513396788138e+01 -9.1951326893933640e+01 0.0000000000000000e+00  -3.7471073491432733e-01 -3.2342587352716713e+01 0.0000000000000000e+00  -7.5618663520654553e-03 -9.1442067228814608e+01 0.0000000000000000e+00  2.3995429683321325e+00 -1.7696062432217879e+01 0.0000000000000000e+00  4.1436541134603289e+00 -5.8079181911284664e+01 0.0000000000000000e+00  -2.0891781104939615e+00 -1.3015408693793532e+01 0.0000000000000000e+00  -1.6710804273210510e+01 -1.3215974533723383e+02 0.0000000000000000e+00  -3.1955682694724228e+01 -1.1323979960088703e+02 0.0000000000000000e+00  1.6412797792401115e+01 -1.3210401220175916e+02 0.0000000000000000e+00  3.0826339031689823e+01 -1.1334625081547662e+02 0.0000000000000000e+00  -2.3820380394469932e+01 -7.0614781687628607e+01 0.0000000000000000e+00  -5.9479031065631638e+00 -4.9065814590358102e+01 0.0000000000000000e+00  -1.5931755675383995e+01 -3.8089476140460967e+01 0.0000000000000000e+00  -1.1784186271356697e+01 -1.0857128321379800e+02 0.0000000000000000e+00  1.2018231389951841e+00 -2.5123216768883569e+01 0.0000000000000000e+00  8.9349246022502609e+00 -4.1175401880295638e+01 0.0000000000000000e+00  -6.6746604069436506e+00 -7.4519547615747982e+01 0.0000000000000000e+00  6.8474854516484500e+00 -1.1206505115743957e+02 0.0000000000000000e+00  -2.7265141698289912e+00 -2.8049795393701615e+01 0.0000000000000000e+00  2.4622061617605020e+01 -7.1482421372745392e+01 0.0000000000000000e+00  9.5426486646565518e+00 -8.1842003091261560e+01 0.0000000000000000e+00  -7.7024545976615659e+00 -1.2171475893898572e+01 0.0000000000000000e+00  0.0000000000000000e+00 0.0000000000000000e+00 0.0000000000000000e+00  0.0000000000000000e+00 0.0000000000000000e+00 0.0000000000000000e+00  7.4721774152440661e+00 -1.1773006175943863e+01 0.0000000000000000e+00  1.6188395343133841e+01 -3.8858839880288052e+01 0.0000000000000000e+00  1.5097845296893599e+01 -1.0009752488508975e+02 0.0000000000000000e+00  -9.4385186373334093e+00 -4.3443911989272728e+01 0.0000000000000000e+00  -1.3702452997397780e+01 -9.1805996171331586e+01 0.0000000000000000e+00  -1.6216235986199004e+00 -2.4129775669200733e+01 0.0000000000000000e+00  -1.2344254955762120e+01 -5.9543363709535051e+01 0.0000000000000000e+00  1.5152703608710012e+00 -9.4083075804977856e+00 0.0000000000000000e+00  1.0998874729042027e+01 -6.5258391654621605e+01 0.0000000000000000e+00  5.8012620625028122e-01 -8.4853903742495049e+00 0.0000000000000000e+00  -1.8418741083080061e+00 -2.0624513063107305e+01 0.0000000000000000e+00  -2.6066260793723212e-01 -7.3678854639180869e+01 0.0000000000000000e+00  1.7812358570372819e+00 -4.2794321772361926e+01 0.0000000000000000e+00  1.8802563066994807e+01 -1.1781963688580140e+02 0.0000000000000000e+00  -8.5730900794880949e+00 -1.2215405570404636e+02 0.0000000000000000e+00  -1.2389752571027117e+00 -1.4689201751757921e+01 0.0000000000000000e+00  -1.0011082123590038e+00 -6.6334109223465374e+00 0.0000000000000000e+00  2.7332266853426348e+00 -1.7333622277375415e+01 0.0000000000000000e+00  -4.4150280563339885e+00 -3.4344454934514445e+01 0.0000000000000000e+00  -3.1579330493542102e-01 -5.8667470303933404e+00 0.0000000000000000e+00  -2.1352810512040705e+01 -1.2005388342687750e+02 0.0000000000000000e+00  -1.9537755990280439e-01 -1.0522917135207955e+02 0.0000000000000000e+00  -2.5599945163013334e+01 -8.1308679266788531e+01 0.0000000000000000e+00  5.7346631213835435e+00 -3.5341699028166701e+01 0.0000000000000000e+00  2.4700841518565348e+00 -3.1267379443933205e+01 0.0000000000000000e+00  -2.1061818475498075e+01 -1.0432999792237177e+02 0.0000000000000000e+00  -3.5792173083619545e+00 -6.2714188655078843e+01 0.0000000000000000e+00  1.2058461911335838e+01 -5.2431566899489759e+01 0.0000000000000000e+00  -1.3574532989741104e+00 -2.0107000030182753e+01 0.0000000000000000e+00  6.0664696573111847e+00 -9.2579031325923793e+01 0.0000000000000000e+00  -5.0174105047262225e+00 -5.4955690826118593e+00 0.0000000000000000e+00  -5.5058822908141876e+00 -9.5934829711038375e+01 0.0000000000000000e+00  -5.2597776141268848e-01 -5.2173095054056482e+01 0.0000000000000000e+00  -1.6050378971074998e+01 -8.0593993597308710e+01 0.0000000000000000e+00  -2.2433145785094486e+00 -8.2139902817220985e+01 0.0000000000000000e+00  5.6408835395615684e+00 -2.7752070699213647e+01 0.0000000000000000e+00  -2.7224234907918321e+00 -4.0204588864484641e+01 0.0000000000000000e+00  7.0593956319900446e+00 -4.9232444919750165e+01 0.0000000000000000e+00  4.0138470890464335e+00 -7.2607512188724172e+01 0.0000000000000000e+00  1.6603143260897152e+01 -7.6755364553419355e+01 0.0000000000000000e+00  -1.4076522300943989e-01 -2.4275220980831111e+01 0.0000000000000000e+00  -7.9918988437262666e+00 -3.5829631668282545e+01 0.0000000000000000e+00  1.7298783152216398e+01 -8.9779722243050827e+01 0.0000000000000000e+00  1.8488137734457467e+01 -4.5643670240383855e+01 0.0000000000000000e+00  -5.7513500305751295e+00 -2.7142600596488005e+01 0.0000000000000000e+00  1.7115168964515157e+00 -1.2067523062927218e+02 0.0000000000000000e+00  1.2513177914698868e+01 -1.2283672856444832e+02 0.0000000000000000e+00  0.0000000000000000e+00 0.0000000000000000e+00 0.0000000000000000e+00  2.0412472689939025e+00 -8.2697662555196061e+01 0.0000000000000000e+00  -1.5181893496561583e+00 -2.9093275498777061e+01 0.0000000000000000e+00  2.3305429678626012e+01 -6.0977354404445038e+01 0.0000000000000000e+00  -9.5430347120662162e+00 -1.8361611047214502e+01 0.0000000000000000e+00  -3.0561677065504820e+00 -1.4987532168674596e+01 0.0000000000000000e+00  2.3029149973018143e+01 -1.3141320217796672e+02 0.0000000000000000e+00  3.1267779631251770e+01 -1.2281900466336671e+02 0.0000000000000000e+00  2.1744321837697100e+00 -1.0028367502661621e+02 0.0000000000000000e+00  2.1625671217158427e+01 -1.0868922755242095e+02 0.0000000000000000e+00  -1.3237226921805071e+01 -5.0574870233837217e+01 0.0000000000000000e+00  2.5571169622230393e+01 -8.2243491544135523e+01 0.0000000000000000e+00  1.3898664523712339e+01 -3.1819342397927119e+01 0.0000000000000000e+00  -3.0745029942109845e+01 -1.0279252362622415e+02 0.0000000000000000e+00  -3.2297060503636864e+01 -1.2296275718773478e+02 0.0000000000000000e+00  -1.3701056311430879e+01 -3.1545632747765325e+01 0.0000000000000000e+00  9.4482485469451571e+00 -1.8025344494334124e+01 0.0000000000000000e+00  0.0000000000000000e+00 0.0000000000000000e+00 0.0000000000000000e+00  -1.0072469193958550e+01 -1.3440984547187955e+02 0.0000000000000000e+00  0.0000000000000000e+00 0.0000000000000000e+00 0.0000000000000000e+00  -2.2745839716768991e+01 -6.0405164289411488e+01 0.0000000000000000e+00  -1.8221483145276618e+01 -4.4600159957409872e+01 0.0000000000000000e+00  4.8374580238422817e+00 -5.3982203286247028e+00 0.0000000000000000e+00  0.0000000000000000e+00 0.0000000000000000e+00 0.0000000000000000e+00  -2.3809303192656433e+01 -1.3166687915110177e+02 0.0000000000000000e+00  1.0968457270004686e+01 -4.2496962367531154e+01 0.0000000000000000e+00  9.9320653947802633e+00 -1.3404791850178475e+02 0.0000000000000000e+00  2.9591129703740542e+01 -1.0330436912555116e+02 0.0000000000000000e+00  -1.2861098236215730e+01 -7.0088327651308418e+01 0.0000000000000000e+00  -1.9532821836324460e-01 -1.8538551356365357e+01 0.0000000000000000e+00  1.1964165496202479e+00 -4.7273324597240167e+00 0.0000000000000000e+00  -2.3167288294483965e+00 -4.6423134722015229e+00 0.0000000000000000e+00  4.3666513593037752e+00 -3.7101058136289836e+01 0.0000000000000000e+00  1.9158928909020236e+00 -3.3177399673699628e+00 0.0000000000000000e+00  -2.0682362271558539e+00 -8.1302042498951259e+00 0.0000000000000000e+00  -6.7975367012651127e-03 -2.8206230983410759e+01 0.0000000000000000e+00  -6.2640039415783078e-01 -1.9608838081645725e+01 0.0000000000000000e+00  -7.3432127624276324e+00 -5.7970345818400922e+01 0.0000000000000000e+00  -6.5911686631172364e+00 -4.1802479233196934e+01 0.0000000000000000e+00  1.3405165906371769e+01 -1.0906208277946487e+02 0.0000000000000000e+00  2.5020289429118638e+00 -1.1793919349903904e+01 0.0000000000000000e+00  5.3252326361536662e-01 -6.3220832462383569e+01 0.0000000000000000e+00  6.5194822292171206e-01 -1.5953207873725880e+01 0.0000000000000000e+00  2.0763730202168409e+00 -1.2191796984640705e+01 0.0000000000000000e+00  8.4881372284584486e+00 -5.7013923907690589e+01 0.0000000000000000e+00  8.8853962333918606e+00 -1.0132155683510635e+02 0.0000000000000000e+00  -1.4408402620244368e+01 -1.1819630809114111e+02 0.0000000000000000e+00  -5.8513007951215368e+00 -1.1261598495121291e+02 0.0000000000000000e+00  -1.0121046051430698e+01 -8.3332898768336307e+01 0.0000000000000000e+00  -1.9959185131343812e+01 -8.9317661142620167e+01 0.0000000000000000e+00  -1.2172024251252875e+01 -9.9798654535259757e+01 0.0000000000000000e+00  -3.7501905414936465e-01 -2.4115574766130667e+01 0.0000000000000000e+00  -2.8840846536556741e+00 -7.3739343620031633e+01 0.0000000000000000e+00  2.1026130629412368e+01 -9.8024070594234004e+01 0.0000000000000000e+00  1.4476821753176106e+00 -2.2484020617493279e+01 0.0000000000000000e+00  1.4544494256073019e+01 -4.8522206763895909e+01 0.0000000000000000e+00  -1.2703921662446110e+01 -4.0715655571696288e+01 0.0000000000000000e+00  1.1317500749225330e+01 -9.0180253547669935e+01 0.0000000000000000e+00  -2.1474446513768944e-01 -5.5233176901548182e+00 0.0000000000000000e+00  -4.9709394064196183e-01 -1.0255312259178659e+01 0.0000000000000000e+00  5.7938856698837204e-01 -1.4327845446385767e+01 0.0000000000000000e+00  -1.7953390768080737e+01 -6.5228404023993647e+01 0.0000000000000000e+00  -5.2419710488178834e+00 -1.9579892968164977e+01 0.0000000000000000e+00  1.7885111348579386e+01 -1.2544090262143079e+02 0.0000000000000000e+00  2.3957517953531344e+01 -1.2394477746515055e+02 0.0000000000000000e+00  -2.2259762937979706e+00 -2.4657440406377010e+01 0.0000000000000000e+00  1.4985351068500005e-01 -2.0454758356680603e+01 0.0000000000000000e+00  1.7538358821341490e+01 -6.8566102877736128e+01 0.0000000000000000e+00  1.5629721163868334e+01 -5.9192279883009931e+01 0.0000000000000000e+00  7.8197011417664362e+00 -7.2712692279292355e+01 0.0000000000000000e+00  3.2847552538080502e+00 -4.9735750216577685e+01 0.0000000000000000e+00  -8.6960902555156455e-02 -3.7185941174658744e+01 0.0000000000000000e+00  5.4627202686264331e+00 -2.2581211825822493e+01 0.0000000000000000e+00  -9.5793794852819207e+00 -4.6609398895703691e+01 0.0000000000000000e+00  1.0609759099047094e+01 -3.4720907112292942e+01 0.0000000000000000e+00  -1.8700925420102170e+01 -7.4305706111145099e+01 0.0000000000000000e+00  -2.4771198483009060e+00 -3.4851928700391987e+01 0.0000000000000000e+00  2.4702616201020970e+01 -1.1646636100292622e+02 0.0000000000000000e+00  5.9553445950333765e+00 -6.4415143948265765e+01 0.0000000000000000e+00  1.3040910135536024e+00 -1.1229525452966894e+02 0.0000000000000000e+00  -8.4336293114320615e-01 -2.9137207205967925e+00 0.0000000000000000e+00  -4.1196697494453076e+00 -3.1820162856890764e+01 0.0000000000000000e+00  -7.8919247945252256e+00 -8.9670250209518457e+01 0.0000000000000000e+00  -1.8684578149776744e+01 -1.1167719875778837e+02 0.0000000000000000e+00  -2.4698078432327520e+01 -1.1230986035818447e+02 0.0000000000000000e+00  -2.3909521137602390e+01 -9.6875469465125903e+01 0.0000000000000000e+00  -2.0094755978859816e+01 -1.2720036332049537e+02 0.0000000000000000e+00  -2.5895145544723796e+01 -1.2535238813230914e+02 0.0000000000000000e+00  -2.6094599032182275e-01 -8.3669235821847721e+01 0.0000000000000000e+00  2.5612059184366026e-01 -4.3532793235542355e+00 0.0000000000000000e+00  -1.5888807134208697e+01 -1.2658028671757430e+02 0.0000000000000000e+00  -6.0225494103654995e+00 -6.6843510990795195e+01 0.0000000000000000e+00  -8.9654908980186609e-01 -1.0096568729339909e+01 0.0000000000000000e+00  -1.7879957571213234e+00 -1.9259854102301597e+00 0.0000000000000000e+00  -4.8928554481041875e+00 -1.2801424207145260e+02 0.0000000000000000e+00  -7.4211626399910180e-01 -2.7663609013058789e+01 0.0000000000000000e+00  -1.7460718328049168e+01 -5.5192900693077718e+01 0.0000000000000000e+00  -2.7335993983860276e+00 -1.5764521925444546e+01 0.0000000000000000e+00  -2.1995203425729328e+00 -1.1397947558520851e+01 0.0000000000000000e+00  -1.1370620537526079e+01 -3.4354015880209069e+01 0.0000000000000000e+00  1.5344285392008702e-01 -1.5049082973509964e+01 0.0000000000000000e+00  -8.2470835492808430e+00 -3.8227051742406843e+01 0.0000000000000000e+00  5.1927019598138848e+00 -1.2796068120952260e+02 0.0000000000000000e+00  -1.4243383305118680e+01 -4.6277494422154533e+01 0.0000000000000000e+00  3.1275525545750802e+00 -2.9041171780199114e+01 0.0000000000000000e+00  5.8102739622140263e+00 -3.9599050626513481e+01 0.0000000000000000e+00  -1.0178460530872687e+01 -5.2899612119170790e+01 0.0000000000000000e+00  3.2468778820195840e+00 -7.8647565051140935e+00 0.0000000000000000e+00  -5.8886980706991849e+00 -1.0493681293603591e+02 0.0000000000000000e+00  1.2805678648266744e-01 -9.8499544434982838e+01 0.0000000000000000e+00  -8.6137332152854240e-01 -4.4045426534347079e+01 0.0000000000000000e+00  0.0000000000000000e+00 0.0000000000000000e+00 0.0000000000000000e+00  2.7674357249475312e+00 -2.4839925340696012e+00 0.0000000000000000e+00  7.0965502080262965e-01 -2.5953009534045837e+00 0.0000000000000000e+00  1.0452517466428906e+00 -2.7347129793107666e+01 0.0000000000000000e+00  6.2253600263130515e+00 -4.2882726738721892e+01 0.0000000000000000e+00  9.6218157317375777e-02 -2.1844093242180001e+01 0.0000000000000000e+00  1.3648831411818771e+01 -1.1623033349981095e+02 0.0000000000000000e+00  -3.0805618457471486e+00 -4.8515866479313900e+01 0.0000000000000000e+00  1.0126044381576332e+01 -4.6042503998293590e+01 0.0000000000000000e+00  4.1768146732617559e+00 -8.0293004385879271e+01 0.0000000000000000e+00  2.6343768396652674e+01 -8.7474762173715717e+01 0.0000000000000000e+00  1.9890690171748741e+01 -8.3840288525118112e+01 0.0000000000000000e+00  -2.5328590562569611e+00 -8.9304469637909307e+01 0.0000000000000000e+00  -6.6691034132070373e+00 -3.1415482925461234e+01 0.0000000000000000e+00  1.6596090239232090e+01 -5.3755478946348525e+01 0.0000000000000000e+00  7.0031662947980591e+00 -1.1929901563908425e+02 0.0000000000000000e+00  1.5258327436248873e+00 -2.1224669021735327e+01 0.0000000000000000e+00  -2.9956081828249204e-01 -3.2829682254757029e+00 0.0000000000000000e+00  9.5303179927639032e+00 -4.7105973677312882e+01 0.0000000000000000e+00  -1.6894682903257447e+01 -9.8245756961447981e+01 0.0000000000000000e+00  4.7973042285574099e+00 -3.5258758436840139e+01 0.0000000000000000e+00  -2.6538770406469773e+01 -1.1904019125630977e+02 0.0000000000000000e+00  -1.5288271909856306e+00 -6.7261188246298843e+01 0.0000000000000000e+00  -4.5566438705303938e+00 -5.4072605715735051e+01 0.0000000000000000e+00  3.1761681762648064e+00 -3.0302989568833315e+01 0.0000000000000000e+00  1.1366901002686707e+00 -3.1448958975193275e+01 0.0000000000000000e+00  1.7217897954350325e+00 -8.1586533228566989e+00 0.0000000000000000e+00  1.4582765736558953e+01 -8.2572302976339884e+01 0.0000000000000000e+00  5.4185947794763196e+00 -1.5119447078179800e+01 0.0000000000000000e+00  -3.3629974149286568e+00 -1.1801525068337868e+02 0.0000000000000000e+00  1.3881191884433530e+00 -9.3495027384560146e+01 0.0000000000000000e+00  -2.6195863095554777e+00 -8.2632957578950119e+00 0.0000000000000000e+00  -6.5776947462820134e-01 -3.5454349169266370e+00 0.0000000000000000e+00  -9.4552819508928945e+00 -6.4118027016072290e+01 0.0000000000000000e+00  -1.6581061043470351e+00 -2.1870557485916930e+01 0.0000000000000000e+00  -2.2614171283191404e+00 -1.8009569844448009e+01 0.0000000000000000e+00  1.1349805283838776e+01 -5.7404948949309293e+01 0.0000000000000000e+00  2.8906902411436657e+00 -1.0684440421276753e+02 0.0000000000000000e+00  1.0759060697638649e+01 -9.6124013828043914e+01 0.0000000000000000e+00  -6.9302472755945139e+00 -2.3807558691248126e+01 0.0000000000000000e+00  2.7026564867726233e+01 -1.3143996125534443e+02 0.0000000000000000e+00  1.2210330675503576e+01 -3.9221387500527413e+01 0.0000000000000000e+00  1.7397891413373328e+00 -6.9995234104779072e+01 0.0000000000000000e+00  -3.1471590561755239e+01 -1.0808065070973771e+02 0.0000000000000000e+00  -2.5085398398150351e+00 -2.9726797494214818e+01 0.0000000000000000e+00  -1.3710763204699625e+00 -2.7053167016639886e+01 0.0000000000000000e+00  6.8010007991444414e+00 -8.6589768743173337e+01 0.0000000000000000e+00  -1.6018530706154340e+01 -1.0499433206893210e+02 0.0000000000000000e+00  -1.5309713059118877e+01 -8.6485437885903025e+01 0.0000000000000000e+00  -2.0852721656756593e+01 -8.3218071339995106e+01 0.0000000000000000e+00  -1.1300454969162743e+01 -7.7630754707412521e+01 0.0000000000000000e+00  2.6463484935978937e-01 -2.5414754089823241e+01 0.0000000000000000e+00  -1.4643884730048580e+00 -5.9272759880632570e+01 0.0000000000000000e+00  1.6147288813625951e+00 -5.4773801916462887e+01 0.0000000000000000e+00  -4.6754471660961379e+00 -4.4181615720845528e+01 0.0000000000000000e+00  -4.4674777975067599e+00 -3.7759061896808973e+01 0.0000000000000000e+00  8.7514601850167963e+00 -2.6531078974830638e+01 0.0000000000000000e+00  -2.5652112317210247e+00 -3.1928714726675935e+01 0.0000000000000000e+00  -8.6986458905225845e+00 -3.9675304946632586e+01 0.0000000000000000e+00  7.2864325317610659e+00 -1.0630164281493722e+02 0.0000000000000000e+00  1.6055466821124689e+00 -7.6589266045485672e+01 0.0000000000000000e+00  -5.6112238304450459e+00 -8.3595762319508992e+01 0.0000000000000000e+00  -1.2137043851149278e+00 -3.0293561020966532e+01 0.0000000000000000e+00  4.2432993901490192e+00 -5.3732307687450129e+00 0.0000000000000000e+00  -1.3618577351210972e+00 -7.8400437698671979e+01 0.0000000000000000e+00  2.1901603492606725e+01 -8.9613106849414322e+01 0.0000000000000000e+00  1.3809073015451436e+00 -3.4535696459844452e+01 0.0000000000000000e+00  1.6779871260741277e+01 -9.5357217737366057e+01 0.0000000000000000e+00  -1.1767535575542749e+00 -2.4925953543050895e+01 0.0000000000000000e+00  -2.5486255803596158e-01 -9.3606674955817965e+01 0.0000000000000000e+00  2.4138010967792674e+01 -1.0433745176121438e+02 0.0000000000000000e+00  6.6921817379636090e+00 -3.1808127151784589e+01 0.0000000000000000e+00  2.6307972158814144e+00 -8.8536096723871438e+01 0.0000000000000000e+00  1.9601142870614641e+00 -2.0197741656803398e+01 0.0000000000000000e+00  9.7618319895411858e+00 -3.0434519640549848e+01 0.0000000000000000e+00  -4.3004257699327368e+00 -1.2133846286728435e+01 0.0000000000000000e+00  -1.2775996912221208e+00 -1.1211259068957965e+01 0.0000000000000000e+00  -4.9431964746564450e-01 -1.4213854835160950e+01 0.0000000000000000e+00  -9.5562853254858506e+00 -3.0357607033351815e+01 0.0000000000000000e+00  9.4858731393374125e+00 -5.2444374260014982e+01 0.0000000000000000e+00  5.6731019443836184e+00 -5.3000328820150102e+01 0.0000000000000000e+00  6.4848808080596338e+00 -1.9393281570671938e+01 0.0000000000000000e+00  -3.5181330810768539e+00 -2.7622718725031923e+01 0.0000000000000000e+00  1.2372493173248387e+01 -7.2138762588058484e+01 0.0000000000000000e+00  2.0340175099130395e+01 -7.4125295333641319e+01 0.0000000000000000e+00  -3.2638