<?xml version="1.0"?>
<VTKFile type="UnstructuredGrid"  version="0.1"  >
<UnstructuredGrid>
<Piece  NumberOfPoints="3321" NumberOfCells="3200">
<Points>
<DataArray  type="Float64"  NumberOfComponents="3"  format="ascii">0 0 0  0.025 0 0  0.05 0 0  0.075 0 0  0.1 0 0  0.125 0 0  0.15 0 0  0.175 0 0  0.2 0 0  0.225 0 0  0.25 0 0  0.275 0 0  0.3 0 0  0.325 0 0  0.35 0 0  0.375 0 0  0.4 0 0  0.425 0 0  0.45 0 0  0.475 0 0  0.5 0 0  0.525 0 0  0.55 0 0  0.575 0 0  0.6 0 0  0.625 0 0  0.65 0 0  0.675 0 0  0.7 0 0  0.725 0 0  0.75 0 0  0.775 0 0  0.8 0 0  0.825 0 0  0.85 0 0  0.875 0 0  0.9 0 0  0.925 0 0  0.95 0 0  0.975 0 0  1 0 0  1.025 0 0  1.05 0 0  1.075 0 0  1.1 0 0  1.125 0 0  1.15 0 0  1.175 0 0  1.2 0 0  1.225 0 0  1.25 0 0  1.275 0 0  1.3 0 0  1.325 0 0  1.35 0 0  1.375 0 0  1.4 0 0  1.425 0 0  1.45 0 0  1.475 0 0  1.5 0 0  1.525 0 0  1.55 0 0  1.575 0 0  1.6 0 0  1.625 0 0  1.65 0 0  1.675 0 0  1.7 0 0  1.725 0 0  1.75 0 0  1.775 0 0  1.8 0 0  1.825 0 0  1.85 0 0  1.875 0 0  1.9 0 0  1.925 0 0  1.95 0 0  1.975 0 0  2 0 0  0 0.025 0  0.025 0.025 0  0.05 0.025 0  0.075 0.025 0  0.1 0.025 0  0.125 0.025 0  0.15 0.025 0  0.175 0.025 0  0.2 0.025 0  0.225 0.025 0  0.25 0.025 0  0.275 0.025 0  0.3 0.025 0  0.325 0.025 0  0.35 0.025 0  0.375 0.025 0  0.4 0.025 0  0.425 0.025 0  0.45 0.025 0  0.475 0.025 0  0.5 0.025 0  0.525 0.025 0  0.55 0.025 0  0.575 0.025 0  0.6 0.025 0  0.625 0.025 0  0.65 0.025 0  0.675 0.025 0  0.7 0.025 0  0.725 0.025 0  0.75 0.025 0  0.775 0.025 0  0.8 0.025 0  0.825 0.025 0  0.85 0.025 0  0.875 0.025 0  0.9 0.025 0  0.925 0.025 0  0.95 0.025 0  0.975 0.025 0  1 0.025 0  1.025 0.025 0  1.05 0.025 0  1.075 0.025 0  1.1 0.025 0  1.125 0.025 0  1.15 0.025 0  1.175 0.025 0  1.2 0.025 0  1.225 0.025 0  1.25 0.025 0  1.275 0.025 0  1.3 0.025 0  1.325 0.025 0  1.35 0.025 0  1.375 0.025 0  1.4 0.025 0  1.425 0.025 0  1.45 0.025 0  1.475 0.025 0  1.5 0.025 0  1.525 0.025 0  1.55 0.025 0  1.575 0.025 0  1.6 0.025 0  1.625 0.025 0  1.65 0.025 0  1.675 0.025 0  1.7 0.025 0  1.725 0.025 0  1.75 0.025 0  1.775 0.025 0  1.8 0.025 0  1.825 0.025 0  1.85 0.025 0  1.875 0.025 0  1.9 0.025 0  1.925 0.025 0  1.95 0.025 0  1.975 0.025 0  2 0.025 0  0 0.05 0  0.025 0.05 0  0.05 0.05 0  0.075 0.05 0  0.1 0.05 0  0.125 0.05 0  0.15 0.05 0  0.175 0.05 0  0.2 0.05 0  0.225 0.05 0  0.25 0.05 0  0.275 0.05 0  0.3 0.05 0  0.325 0.05 0  0.35 0.05 0  0.375 0.05 0  0.4 0.05 0  0.425 0.05 0  0.45 0.05 0  0.475 0.05 0  0.5 0.05 0  0.525 0.05 0  0.55 0.05 0  0.575 0.05 0  0.6 0.05 0  0.625 0.05 0  0.65 0.05 0  0.675 0.05 0  0.7 0.05 0  0.725 0.05 0  0.75 0.05 0  0.775 0.05 0  0.8 0.05 0  0.825 0.05 0  0.85 0.05 0  0.875 0.05 0  0.9 0.05 0  0.925 0.05 0  0.95 0.05 0  0.975 0.05 0  1 0.05 0  1.025 0.05 0  1.05 0.05 0  1.075 0.05 0  1.1 0.05 0  1.125 0.05 0  1.15 0.05 0  1.175 0.05 0  1.2 0.05 0  1.225 0.05 0  1.25 0.05 0  1.275 0.05 0  1.3 0.05 0  1.325 0.05 0  1.35 0.05 0  1.375 0.05 0  1.4 0.05 0  1.425 0.05 0  1.45 0.05 0  1.475 0.05 0  1.5 0.05 0  1.525 0.05 0  1.55 0.05 0  1.575 0.05 0  1.6 0.05 0  1.625 0.05 0  1.65 0.05 0  1.675 0.05 0  1.7 0.05 0  1.725 0.05 0  1.75 0.05 0  1.775 0.05 0  1.8 0.05 0  1.825 0.05 0  1.85 0.05 0  1.875 0.05 0  1.9 0.05 0  1.925 0.05 0  1.95 0.05 0  1.975 0.05 0  2 0.05 0  0 0.075 0  0.025 0.075 0  0.05 0.075 0  0.075 0.075 0  0.1 0.075 0  0.125 0.075 0  0.15 0.075 0  0.175 0.075 0  0.2 0.075 0  0.225 0.075 0  0.25 0.075 0  0.275 0.075 0  0.3 0.075 0  0.325 0.075 0  0.35 0.075 0  0.375 0.075 0  0.4 0.075 0  0.425 0.075 0  0.45 0.075 0  0.475 0.075 0  0.5 0.075 0  0.525 0.075 0  0.55 0.075 0  0.575 0.075 0  0.6 0.075 0  0.625 0.075 0  0.65 0.075 0  0.675 0.075 0  0.7 0.075 0  0.725 0.075 0  0.75 0.075 0  0.775 0.075 0  0.8 0.075 0  0.825 0.075 0  0.85 0.075 0  0.875 0.075 0  0.9 0.075 0  0.925 0.075 0  0.95 0.075 0  0.975 0.075 0  1 0.075 0  1.025 0.075 0  1.05 0.075 0  1.075 0.075 0  1.1 0.075 0  1.125 0.075 0  1.15 0.075 0  1.175 0.075 0  1.2 0.075 0  1.225 0.075 0  1.25 0.075 0  1.275 0.075 0  1.3 0.075 0  1.325 0.075 0  1.35 0.075 0  1.375 0.075 0  1.4 0.075 0  1.425 0.075 0  1.45 0.075 0  1.475 0.075 0  1.5 0.075 0  1.525 0.075 0  1.55 0.075 0  1.575 0.075 0  1.6 0.075 0  1.625 0.075 0  1.65 0.075 0  1.675 0.075 0  1.7 0.075 0  1.725 0.075 0  1.75 0.075 0  1.775 0.075 0  1.8 0.075 0  1.825 0.075 0  1.85 0.075 0  1.875 0.075 0  1.9 0.075 0  1.925 0.075 0  1.95 0.075 0  1.975 0.075 0  2 0.075 0  0 0.1 0  0.025 0.1 0  0.05 0.1 0  0.075 0.1 0  0.1 0.1 0  0.125 0.1 0  0.15 0.1 0  0.175 0.1 0  0.2 0.1 0  0.225 0.1 0  0.25 0.1 0  0.275 0.1 0  0.3 0.1 0  0.325 0.1 0  0.35 0.1 0  0.375 0.1 0  0.4 0.1 0  0.425 0.1 0  0.45 0.1 0  0.475 0.1 0  0.5 0.1 0  0.525 0.1 0  0.55 0.1 0  0.575 0.1 0  0.6 0.1 0  0.625 0.1 0  0.65 0.1 0  0.675 0.1 0  0.7 0.1 0  0.725 0.1 0  0.75 0.1 0  0.775 0.1 0  0.8 0.1 0  0.825 0.1 0  0.85 0.1 0  0.875 0.1 0  0.9 0.1 0  0.925 0.1 0  0.95 0.1 0  0.975 0.1 0  1 0.1 0  1.025 0.1 0  1.05 0.1 0  1.075 0.1 0  1.1 0.1 0  1.125 0.1 0  1.15 0.1 0  1.175 0.1 0  1.2 0.1 0  1.225 0.1 0  1.25 0.1 0  1.275 0.1 0  1.3 0.1 0  1.325 0.1 0  1.35 0.1 0  1.375 0.1 0  1.4 0.1 0  1.425 0.1 0  1.45 0.1 0  1.475 0.1 0  1.5 0.1 0  1.525 0.1 0  1.55 0.1 0  1.575 0.1 0  1.6 0.1 0  1.625 0.1 0  1.65 0.1 0  1.675 0.1 0  1.7 0.1 0  1.725 0.1 0  1.75 0.1 0  1.775 0.1 0  1.8 0.1 0  1.825 0.1 0  1.85 0.1 0  1.875 0.1 0  1.9 0.1 0  1.925 0.1 0  1.95 0.1 0  1.975 0.1 0  2 0.1 0  0 0.125 0  0.025 0.125 0  0.05 0.125 0  0.075 0.125 0  0.1 0.125 0  0.125 0.125 0  0.15 0.125 0  0.175 0.125 0  0.2 0.125 0  0.225 0.125 0  0.25 0.125 0  0.275 0.125 0  0.3 0.125 0  0.325 0.125 0  0.35 0.125 0  0.375 0.125 0  0.4 0.125 0  0.425 0.125 0  0.45 0.125 0  0.475 0.125 0  0.5 0.125 0  0.525 0.125 0  0.55 0.125 0  0.575 0.125 0  0.6 0.125 0  0.625 0.125 0  0.65 0.125 0  0.675 0.125 0  0.7 0.125 0  0.725 0.125 0  0.75 0.125 0  0.775 0.125 0  0.8 0.125 0  0.825 0.125 0  0.85 0.125 0  0.875 0.125 0  0.9 0.125 0  0.925 0.125 0  0.95 0.125 0  0.975 0.125 0  1 0.125 0  1.025 0.125 0  1.05 0.125 0  1.075 0.125 0  1.1 0.125 0  1.125 0.125 0  1.15 0.125 0  1.175 0.125 0  1.2 0.125 0  1.225 0.125 0  1.25 0.125 0  1.275 0.125 0  1.3 0.125 0  1.325 0.125 0  1.35 0.125 0  1.375 0.125 0  1.4 0.125 0  1.425 0.125 0  1.45 0.125 0  1.475 0.125 0  1.5 0.125 0  1.525 0.125 0  1.55 0.125 0  1.575 0.125 0  1.6 0.125 0  1.625 0.125 0  1.65 0.125 0  1.675 0.125 0  1.7 0.125 0  1.725 0.125 0  1.75 0.125 0  1.775 0.125 0  1.8 0.125 0  1.825 0.125 0  1.85 0.125 0  1.875 0.125 0  1.9 0.125 0  1.925 0.125 0  1.95 0.125 0  1.975 0.125 0  2 0.125 0  0 0.15 0  0.025 0.15 0  0.05 0.15 0  0.075 0.15 0  0.1 0.15 0  0.125 0.15 0  0.15 0.15 0  0.175 0.15 0  0.2 0.15 0  0.225 0.15 0  0.25 0.15 0  0.275 0.15 0  0.3 0.15 0  0.325 0.15 0  0.35 0.15 0  0.375 0.15 0  0.4 0.15 0  0.425 0.15 0  0.45 0.15 0  0.475 0.15 0  0.5 0.15 0  0.525 0.15 0  0.55 0.15 0  0.575 0.15 0  0.6 0.15 0  0.625 0.15 0  0.65 0.15 0  0.675 0.15 0  0.7 0.15 0  0.725 0.15 0  0.75 0.15 0  0.775 0.15 0  0.8 0.15 0  0.825 0.15 0  0.85 0.15 0  0.875 0.15 0  0.9 0.15 0  0.925 0.15 0  0.95 0.15 0  0.975 0.15 0  1 0.15 0  1.025 0.15 0  1.05 0.15 0  1.075 0.15 0  1.1 0.15 0  1.125 0.15 0  1.15 0.15 0  1.175 0.15 0  1.2 0.15 0  1.225 0.15 0  1.25 0.15 0  1.275 0.15 0  1.3 0.15 0  1.325 0.15 0  1.35 0.15 0  1.375 0.15 0  1.4 0.15 0  1.425 0.15 0  1.45 0.15 0  1.475 0.15 0  1.5 0.15 0  1.525 0.15 0  1.55 0.15 0  1.575 0.15 0  1.6 0.15 0  1.625 0.15 0  1.65 0.15 0  1.675 0.15 0  1.7 0.15 0  1.725 0.15 0  1.75 0.15 0  1.775 0.15 0  1.8 0.15 0  1.825 0.15 0  1.85 0.15 0  1.875 0.15 0  1.9 0.15 0  1.925 0.15 0  1.95 0.15 0  1.975 0.15 0  2 0.15 0  0 0.175 0  0.025 0.175 0  0.05 0.175 0  0.075 0.175 0  0.1 0.175 0  0.125 0.175 0  0.15 0.175 0  0.175 0.175 0  0.2 0.175 0  0.225 0.175 0  0.25 0.175 0  0.275 0.175 0  0.3 0.175 0  0.325 0.175 0  0.35 0.175 0  0.375 0.175 0  0.4 0.175 0  0.425 0.175 0  0.45 0.175 0  0.475 0.175 0  0.5 0.175 0  0.525 0.175 0  0.55 0.175 0  0.575 0.175 0  0.6 0.175 0  0.625 0.175 0  0.65 0.175 0  0.675 0.175 0  0.7 0.175 0  0.725 0.175 0  0.75 0.175 0  0.775 0.175 0  0.8 0.175 0  0.825 0.175 0  0.85 0.175 0  0.875 0.175 0  0.9 0.175 0  0.925 0.175 0  0.95 0.175 0  0.975 0.175 0  1 0.175 0  1.025 0.175 0  1.05 0.175 0  1.075 0.175 0  1.1 0.175 0  1.125 0.175 0  1.15 0.175 0  1.175 0.175 0  1.2 0.175 0  1.225 0.175 0  1.25 0.175 0  1.275 0.175 0  1.3 0.175 0  1.325 0.175 0  1.35 0.175 0  1.375 0.175 0  1.4 0.175 0  1.425 0.175 0  1.45 0.175 0  1.475 0.175 0  1.5 0.175 0  1.525 0.175 0  1.55 0.175 0  1.575 0.175 0  1.6 0.175 0  1.625 0.175 0  1.65 0.175 0  1.675 0.175 0  1.7 0.175 0  1.725 0.175 0  1.75 0.175 0  1.775 0.175 0  1.8 0.175 0  1.825 0.175 0  1.85 0.175 0  1.875 0.175 0  1.9 0.175 0  1.925 0.175 0  1.95 0.175 0  1.975 0.175 0  2 0.175 0  0 0.2 0  0.025 0.2 0  0.05 0.2 0  0.075 0.2 0  0.1 0.2 0  0.125 0.2 0  0.15 0.2 0  0.175 0.2 0  0.2 0.2 0  0.225 0.2 0  0.25 0.2 0  0.275 0.2 0  0.3 0.2 0  0.325 0.2 0  0.35 0.2 0  0.375 0.2 0  0.4 0.2 0  0.425 0.2 0  0.45 0.2 0  0.475 0.2 0  0.5 0.2 0  0.525 0.2 0  0.55 0.2 0  0.575 0.2 0  0.6 0.2 0  0.625 0.2 0  0.65 0.2 0  0.675 0.2 0  0.7 0.2 0  0.725 0.2 0  0.75 0.2 0  0.775 0.2 0  0.8 0.2 0  0.825 0.2 0  0.85 0.2 0  0.875 0.2 0  0.9 0.2 0  0.925 0.2 0  0.95 0.2 0  0.975 0.2 0  1 0.2 0  1.025 0.2 0  1.05 0.2 0  1.075 0.2 0  1.1 0.2 0  1.125 0.2 0  1.15 0.2 0  1.175 0.2 0  1.2 0.2 0  1.225 0.2 0  1.25 0.2 0  1.275 0.2 0  1.3 0.2 0  1.325 0.2 0  1.35 0.2 0  1.375 0.2 0  1.4 0.2 0  1.425 0.2 0  1.45 0.2 0  1.475 0.2 0  1.5 0.2 0  1.525 0.2 0  1.55 0.2 0  1.575 0.2 0  1.6 0.2 0  1.625 0.2 0  1.65 0.2 0  1.675 0.2 0  1.7 0.2 0  1.725 0.2 0  1.75 0.2 0  1.775 0.2 0  1.8 0.2 0  1.825 0.2 0  1.85 0.2 0  1.875 0.2 0  1.9 0.2 0  1.925 0.2 0  1.95 0.2 0  1.975 0.2 0  2 0.2 0  0 0.225 0  0.025 0.225 0  0.05 0.225 0  0.075 0.225 0  0.1 0.225 0  0.125 0.225 0  0.15 0.225 0  0.175 0.225 0  0.2 0.225 0  0.225 0.225 0  0.25 0.225 0  0.275 0.225 0  0.3 0.225 0  0.325 0.225 0  0.35 0.225 0  0.375 0.225 0  0.4 0.225 0  0.425 0.225 0  0.45 0.225 0 
[...]
<PointData  Vectors="displacements"> 
<DataArray  type="Float64"  Name="displacements"  NumberOfComponents="3" format="ascii">0.0000000000000000e+00 0.0000000000000000e+00 0.0000000000000000e+00  5.8242961992685244e-06 -1.7866546018000902e-05 0.0000000000000000e+00  1.3622300519709357e-05 -2.9298283924315461e-05 0.0000000000000000e+00  2.2914481799699527e-05 -3.7064361620283403e-05 0.0000000000000000e+00  4.7444497577016043e-05 -3.1119028416776187e-05 0.0000000000000000e+00  6.7161902370471967e-05 -2.0397571368087352e-05 0.0000000000000000e+00  8.4239443604212924e-05 -8.2608693736341758e-06 0.0000000000000000e+00  9.9037686583443372e-05 4.6203640681043955e-06 0.0000000000000000e+00  1.1206741348427127e-04 1.7992087911256806e-05 0.0000000000000000e+00  1.2373999532344773e-04 3.2069718488475225e-05 0.0000000000000000e+00  1.3406244371361992e-04 4.7214065743367841e-05 0.0000000000000000e+00  1.4275995688973502e-04 6.3365144845024051e-05 0.0000000000000000e+00  1.4974292856370058e-04 8.0011824119834323e-05 0.0000000000000000e+00  1.5510775826342463e-04 9.6600407301377240e-05 0.0000000000000000e+00  1.5915483182454425e-04 1.1288641821575237e-04 0.0000000000000000e+00  1.6201672611993525e-04 1.2895863056978850e-04 0.0000000000000000e+00  1.6367012248182274e-04 1.4491201417677084e-04 0.0000000000000000e+00  1.6403542750294785e-04 1.6066101110155420e-04 0.0000000000000000e+00  1.6315636912366015e-04 1.7605046337281719e-04 0.0000000000000000e+00  1.6112438655910849e-04 1.9105116465739180e-04 0.0000000000000000e+00  1.5795108247944277e-04 2.0570934134388918e-04 0.0000000000000000e+00  1.5356781309355366e-04 2.1998430624961502e-04 0.0000000000000000e+00  1.4791476801907690e-04 2.3367867065804998e-04 0.0000000000000000e+00  1.4104231534205604e-04 2.4651617607060255e-04 0.0000000000000000e+00  1.3310361236242588e-04 2.5826010603264275e-04 0.0000000000000000e+00  1.2431644527178504e-04 2.6877073202947267e-04 0.0000000000000000e+00  1.1492297421943903e-04 2.7801616701259989e-04 0.0000000000000000e+00  1.0517018154210119e-04 2.8606704991035345e-04 0.0000000000000000e+00  9.5291761133012417e-05 2.9309541474636713e-04 0.0000000000000000e+00  8.5481578418985808e-05 2.9936581811533937e-04 0.0000000000000000e+00  7.5864947791470935e-05 3.0520894270776944e-04 0.0000000000000000e+00  6.6478204165898661e-05 3.1097962014381224e-04 0.0000000000000000e+00  5.7269702637359452e-05 3.1701936744685602e-04 0.0000000000000000e+00  4.8116712477254479e-05 3.2363780269094615e-04 0.0000000000000000e+00  3.8858053995535141e-05 3.3141669724762494e-04 0.0000000000000000e+00  2.8599235254032921e-05 3.4089776653725744e-04 0.0000000000000000e+00  1.4418701832006236e-05 3.6033033245435757e-04 0.0000000000000000e+00  2.3362445508617106e-05 3.6123674215815196e-04 0.0000000000000000e+00  3.2817819854776558e-05 3.6108395360605854e-04 0.0000000000000000e+00  4.3636972721679707e-05 3.5597341266719836e-04 0.0000000000000000e+00  5.1271495864913601e-05 3.5997957622260242e-04 0.0000000000000000e+00  5.8925017883714355e-05 3.6677322270738577e-04 0.0000000000000000e+00  6.9330121621264602e-05 3.8197230822382494e-04 0.0000000000000000e+00  7.8448467460680548e-05 3.9165727302042187e-04 0.0000000000000000e+00  4.6846046940724702e-05 3.6499374020569430e-04 0.0000000000000000e+00  2.4806112068129488e-05 3.5139277465244848e-04 0.0000000000000000e+00  7.1612238693650147e-06 3.3902568994577435e-04 0.0000000000000000e+00  -8.1432962650448351e-06 3.2826728023109471e-04 0.0000000000000000e+00  -2.1927862550652616e-05 3.1884024984298509e-04 0.0000000000000000e+00  -3.4846051562766899e-05 3.1060002525413723e-04 0.0000000000000000e+00  -4.7331218129501113e-05 3.0319425366733617e-04 0.0000000000000000e+00  -5.9609780870008802e-05 2.9618130893866405e-04 0.0000000000000000e+00  -7.1743190667769273e-05 2.8910666236008770e-04 0.0000000000000000e+00  -8.3665894266895689e-05 2.8155326255869324e-04 0.0000000000000000e+00  -9.5211974175422791e-05 2.7318077730466994e-04 0.0000000000000000e+00  -1.0613847178061641e-04 2.6376802983749695e-04 0.0000000000000000e+00  -1.1616575776948645e-04 2.5325726052922716e-04 0.0000000000000000e+00  -1.2504894658867566e-04 2.4176407114402115e-04 0.0000000000000000e+00  -1.3264538968284705e-04 2.2951923087961108e-04 0.0000000000000000e+00  -1.3894316475477684e-04 2.1673457886421107e-04 0.0000000000000000e+00  -1.4397507026630619e-04 2.0351782825428461e-04 0.0000000000000000e+00  -1.4778902966444536e-04 1.8987824312358527e-04 0.0000000000000000e+00  -1.5039969113282657e-04 1.7579470628039095e-04 0.0000000000000000e+00  -1.5186535001983966e-04 1.6114576757905627e-04 0.0000000000000000e+00  -1.5207419293067467e-04 1.4572239928716609e-04 0.0000000000000000e+00  -1.5078300891274842e-04 1.2956349057941546e-04 0.0000000000000000e+00  -1.4785061907119049e-04 1.1307430183911324e-04 0.0000000000000000e+00  -1.4339330821304269e-04 9.6727465991941483e-05 0.0000000000000000e+00  -1.3772437994510878e-04 8.0551307732858112e-05 0.0000000000000000e+00  -1.3080361878067750e-04 6.4408145316914152e-05 0.0000000000000000e+00  -1.2245298627477753e-04 4.8634356700566405e-05 0.0000000000000000e+00  -1.1278077608901310e-04 3.3810003175926512e-05 0.0000000000000000e+00  -1.0202304286373629e-04 2.0193910091935879e-05 0.0000000000000000e+00  -9.0528664413696666e-05 7.2134226314465760e-06 0.0000000000000000e+00  -7.7703269131889244e-05 -5.5856909553570914e-06 0.0000000000000000e+00  -6.2818764255974133e-05 -1.5065612925506228e-05 0.0000000000000000e+00  -4.6536551948587803e-05 -2.2089582355783745e-05 0.0000000000000000e+00  -2.4880257060658240e-05 -3.2012900316038143e-05 0.0000000000000000e+00  -1.5138549176172636e-05 -2.6733934095402152e-05 0.0000000000000000e+00  -6.1800097218414842e-06 -1.7351043653120436e-05 0.0000000000000000e+00  0.0000000000000000e+00 0.0000000000000000e+00 0.0000000000000000e+00  0.0000000000000000e+00 0.0000000000000000e+00 0.0000000000000000e+00  1.2445326082489713e-05 -8.9629230600698705e-06 0.0000000000000000e+00  2.1080286850770569e-05 -2.1437288735239492e-05 0.0000000000000000e+00  3.0412017851357433e-05 -2.7566691890532653e-05 0.0000000000000000e+00  4.0670580358987988e-05 -2.6971781325270050e-05 0.0000000000000000e+00  5.8718055946846429e-05 -1.5041584413345119e-05 0.0000000000000000e+00  7.4364572669148249e-05 -1.7850629046288665e-06 0.0000000000000000e+00  8.7937343169779291e-05 1.1897168843218444e-05 0.0000000000000000e+00  1.0006604397871740e-04 2.5788587369687513e-05 0.0000000000000000e+00  1.1083266798279200e-04 4.0395155200657293e-05 0.0000000000000000e+00  1.2020804101571917e-04 5.6114421364942570e-05 0.0000000000000000e+00  1.2828120823835310e-04 7.2983828103451536e-05 0.0000000000000000e+00  1.3488351301991225e-04 9.0348272215175920e-05 0.0000000000000000e+00  1.4023178408574329e-04 1.0749981308244361e-04 0.0000000000000000e+00  1.4440457963683839e-04 1.2424373015809984e-04 0.0000000000000000e+00  1.4748294784296045e-04 1.4078146087558878e-04 0.0000000000000000e+00  1.4934298738497389e-04 1.5729848568399912e-04 0.0000000000000000e+00  1.4994566561253247e-04 1.7361513285946574e-04 0.0000000000000000e+00  1.4934902709808800e-04 1.8949995607893711e-04 0.0000000000000000e+00  1.4765908536265522e-04 2.0494155337315702e-04 0.0000000000000000e+00  1.4490836785664477e-04 2.2007525893635239e-04 0.0000000000000000e+00  1.4103464948508079e-04 2.3488007061670015e-04 0.0000000000000000e+00  1.3603492082331730e-04 2.4910504002272088e-04 0.0000000000000000e+00  1.2997188889340340e-04 2.6242121617996411e-04 0.0000000000000000e+00  1.2297363168260918e-04 2.7456228023671470e-04 0.0000000000000000e+00  1.1518665262081597e-04 2.8538410525826084e-04 0.0000000000000000e+00  1.0676617540975972e-04 2.9485144479210056e-04 0.0000000000000000e+00  9.7876657007949736e-05 3.0303201095881514e-04 0.0000000000000000e+00  8.8682462882726549e-05 3.1010354883239386e-04 0.0000000000000000e+00  7.9327987694170898e-05 3.1634979876416907e-04 0.0000000000000000e+00  6.9915356048028257e-05 3.2213210399506374e-04 0.0000000000000000e+00  6.0485353867492201e-05 3.2784493139753596e-04 0.0000000000000000e+00  5.0998137142052389e-05 3.3386621951896300e-04 0.0000000000000000e+00  4.1315149694465543e-05 3.4055717937653583e-04 0.0000000000000000e+00  3.1229799304133367e-05 3.4828009077745626e-04 0.0000000000000000e+00  2.0648763267768792e-05 3.5840945884293247e-04 0.0000000000000000e+00  1.3218461886097970e-05 3.6927743490003211e-04 0.0000000000000000e+00  2.2328609349612727e-05 3.7045718736110990e-04 0.0000000000000000e+00  3.1691417850652827e-05 3.6993845705597005e-04 0.0000000000000000e+00  3.9247670728963742e-05 3.6977210526331947e-04 0.0000000000000000e+00  4.5893630097285108e-05 3.7451829324385233e-04 0.0000000000000000e+00  5.2549395597774063e-05 3.8049448694005435e-04 0.0000000000000000e+00  6.0062501929615596e-05 3.9097265099690526e-04 0.0000000000000000e+00  6.9159835210725064e-05 4.0080635597181639e-04 0.0000000000000000e+00  5.3371243709500146e-05 3.8762208216202996e-04 0.0000000000000000e+00  3.3506427813093925e-05 3.7190463370662244e-04 0.0000000000000000e+00  1.5870499062531510e-05 3.5880122766496079e-04 0.0000000000000000e+00  1.6307678312584679e-07 3.4728589784492966e-04 0.0000000000000000e+00  -1.4197110575255620e-05 3.3742533470401762e-04 0.0000000000000000e+00  -2.7676504043593150e-05 3.2894008738326041e-04 0.0000000000000000e+00  -4.0538331999328437e-05 3.2139094491047941e-04 0.0000000000000000e+00  -5.2912960527550724e-05 3.1427252087691131e-04 0.0000000000000000e+00  -6.4836627489232680e-05 3.0708511551285272e-04 0.0000000000000000e+00  -7.6273551541255097e-05 2.9937518910585267e-04 0.0000000000000000e+00  -8.7128626766259292e-05 2.9077137364336337e-04 0.0000000000000000e+00  -9.7261305086527875e-05 2.8102657873593561e-04 0.0000000000000000e+00  -1.0649810476117307e-04 2.7006941061686761e-04 0.0000000000000000e+00  -1.1466443337164019e-04 2.5804242143543553e-04 0.0000000000000000e+00  -1.2165424350305504e-04 2.4523596820479678e-04 0.0000000000000000e+00  -1.2743688053478824e-04 2.3192421253660135e-04 0.0000000000000000e+00  -1.3204470043406280e-04 2.1819046107215888e-04 0.0000000000000000e+00  -1.3540301776693319e-04 2.0401623679577774e-04 0.0000000000000000e+00  -1.3751156116468437e-04 1.8940321223160481e-04 0.0000000000000000e+00  -1.3834443744484368e-04 1.7428592906654523e-04 0.0000000000000000e+00  -1.3801160839366856e-04 1.5834553875347987e-04 0.0000000000000000e+00  -1.3633582534558562e-04 1.4145775052509991e-04 0.0000000000000000e+00  -1.3313802114484283e-04 1.2424807085540640e-04 0.0000000000000000e+00  -1.2865780146399352e-04 1.0737161672277728e-04 0.0000000000000000e+00  -1.2296814270995176e-04 9.0776746492187861e-05 0.0000000000000000e+00  -1.1634650430095728e-04 7.4176464791181579e-05 0.0000000000000000e+00  -1.0868397919628904e-04 5.7725114937018657e-05 0.0000000000000000e+00  -9.9767241284268209e-05 4.2406845380796203e-05 0.0000000000000000e+00  -8.9999536633271514e-05 2.8457372977710151e-05 0.0000000000000000e+00  -7.9024911094352219e-05 1.5222981878028693e-05 0.0000000000000000e+00  -6.7016504297834093e-05 1.5252830173535163e-06 0.0000000000000000e+00  -5.7199004194549323e-05 -6.9971362865424975e-06 0.0000000000000000e+00  -4.5070670881342762e-05 -1.5776443103271786e-05 0.0000000000000000e+00  -3.2587918308581539e-05 -2.1755838712575001e-05 0.0000000000000000e+00  -2.1669096439335171e-05 -1.9487222853296186e-05 0.0000000000000000e+00  -1.2492293817882459e-05 -8.5281841640636313e-06 0.0000000000000000e+00  0.0000000000000000e+00 0.0000000000000000e+00 0.0000000000000000e+00  0.0000000000000000e+00 0.0000000000000000e+00 0.0000000000000000e+00  1.2578901534834504e-05 -6.4137016926917243e-06 0.0000000000000000e+00  2.4076978662339138e-05 -1.5175542989909237e-05 0.0000000000000000e+00  3.4302724399457104e-05 -1.8804282823464214e-05 0.0000000000000000e+00  4.4713192669837689e-05 -1.6496738522890943e-05 0.0000000000000000e+00  5.5400006322313886e-05 -9.1902447402854041e-06 0.0000000000000000e+00  6.8504211444797171e-05 6.1101805191329398e-06 0.0000000000000000e+00  8.0863781926453316e-05 1.9669182542516246e-05 0.0000000000000000e+00  9.1877881965343370e-05 3.4278093170302866e-05 0.0000000000000000e+00  1.0112571092131070e-04 4.9124150124451349e-05 0.0000000000000000e+00  1.0975575961024196e-04 6.5192978122655077e-05 0.0000000000000000e+00  1.1684866398364774e-04 8.2937736441559951e-05 0.0000000000000000e+00  1.2307680434284524e-04 1.0091873589550782e-04 0.0000000000000000e+00  1.2824109672395891e-04 1.1851996374427932e-04 0.0000000000000000e+00  1.3257374218253611e-04 1.3551767640651469e-04 0.0000000000000000e+00  1.3585458396085767e-04 1.5239367047833986e-04 0.0000000000000000e+00  1.3802051671689915e-04 1.6958134940782570e-04 0.0000000000000000e+00  1.3871960654577773e-04 1.8661806525183304e-04 0.0000000000000000e+00  1.3822835392815488e-04 2.0289733467672175e-04 0.0000000000000000e+00  1.3687983971487726e-04 2.1862034188291341e-04 0.0000000000000000e+00  1.3456239933998989e-04 2.3418530344783029e-04 0.0000000000000000e+00  1.3118324857277127e-04 2.4955830331334442e-04 0.0000000000000000e+00  1.2666399876743931e-04 2.6435889504880928e-04 0.0000000000000000e+00  1.2114120463845563e-04 2.7814600568003782e-04 0.0000000000000000e+00  1.1475245724455888e-04 2.9066810809331810e-04 0.0000000000000000e+00  1.0759610941619985e-04 3.0180965902984621e-04 0.0000000000000000e+00  9.9756614517304933e-05 3.1153590527544141e-04 0.0000000000000000e+00  9.1342320172252243e-05 3.1989227333895900e-04 0.0000000000000000e+00  8.2495173720011970e-05 3.2704559081333118e-04 0.0000000000000000e+00  7.3358005642288026e-05 3.3329486712300034e-04 0.0000000000000000e+00  6.4045921978110354e-05 3.3902908176225086e-04 0.0000000000000000e+00  5.4637099730471140e-05 3.4467622448171526e-04 0.0000000000000000e+00  4.5155531886590765e-05 3.5066464338586248e-04 0.0000000000000000e+00  3.5564144544220431e-05 3.5733970671203414e-04 0.0000000000000000e+00  2.5896204347061493e-05 3.6488730780302964e-04 0.0000000000000000e+00  1.7137545320541611e-05 3.7262346395769381e-04 0.0000000000000000e+00  1.0561984450614350e-05 3.7870212548100148e-04 0.0000000000000000e+00  1.9074198519170074e-05 3.8046910363414139e-04 0.0000000000000000e+00  2.6878191038942497e-05 3.8153403668364711e-04 0.0000000000000000e+00  3.3832307308703865e-05 3.8376284237711576e-04 0.0000000000000000e+00  4.0573672957086445e-05 3.8886048783241990e-04 0.0000000000000000e+00  4.7324947507557707e-05 3.9440392965729243e-04 0.0000000000000000e+00  5.4262851563764433e-05 4.0254375281871047e-04 0.0000000000000000e+00  6.2044115041689869e-05 4.1053127199143963e-04 0.0000000000000000e+00  4.9584608665511769e-05 4.0355616758400024e-04 0.0000000000000000e+00  3.4946507835049248e-05 3.9094895315677840e-04 0.0000000000000000e+00  1.9688715559295324e-05 3.7754162933994676e-04 0.0000000000000000e+00  5.2019065498695226e-06 3.6574431034514762e-04 0.0000000000000000e+00  -8.7058875981862228e-06 3.5575434428795704e-04 0.0000000000000000e+00  -2.2108372239475828e-05 3.4719573718106181e-04 0.0000000000000000e+00  -3.5003327576489700e-05 3.3956574151648505e-04 0.0000000000000000e+00  -4.7365706261891992e-05 3.3234357685587516e-04 0.0000000000000000e+00  -5.9159847512901310e-05 3.2501831046661802e-04 0.0000000000000000e+00  -7.0332271321179259e-05 3.1712669791888386e-04 0.0000000000000000e+00  -8.0822841198211639e-05 3.0828203602743147e-04 0.0000000000000000e+00  -9.0540906775395734e-05 2.9820339012450115e-04 0.0000000000000000e+00  -9.9352878376487614e-05 2.8677617028782554e-04 0.0000000000000000e+00  -1.0707661017655122e-04 2.7413100225860844e-04 0.0000000000000000e+00  -1.1354416651176374e-04 2.6069648011251445e-04 0.0000000000000000e+00  -1.1884308737269990e-04 2.4688750256559601e-04 0.0000000000000000e+00  -1.2304862500658905e-04 2.3276454501102424e-04 0.0000000000000000e+00  -1.2616938767418499e-04 2.1796436436448833e-04 0.0000000000000000e+00  -1.2767305296559691e-04 2.0270148296524083e-04 0.0000000000000000e+00  -1.2800296767133463e-04 1.8724664507370226e-04 0.0000000000000000e+00  -1.2705516157046151e-04 1.7094458325477791e-04 0.0000000000000000e+00  -1.2513774780007234e-04 1.5337317410810223e-04 0.0000000000000000e+00  -1.2182261101162624e-04 1.3497787314282651e-04 0.0000000000000000e+00  -1.1667489716725088e-04 1.1783992276627433e-04 0.0000000000000000e+00  -1.1115556088846086e-04 1.0108895011300482e-04 0.0000000000000000e+00  -1.0411732178302810e-04 8.3923232989496148e-05 0.0000000000000000e+00  -9.6789332544763276e-05 6.7342307024261666e-05 0.0000000000000000e+00  -8.9984075240822319e-05 5.1351971653471722e-05 0.0000000000000000e+00  -8.0666208142580337e-05 3.7029597468411274e-05 0.0000000000000000e+00  -7.0823462562319566e-05 2.3683700203138804e-05 0.0000000000000000e+00  -6.0914407367819090e-05 1.1548792321292314e-05 0.0000000000000000e+00  -5.1016414213936826e-05 1.3918968222095232e-06 0.0000000000000000e+00  -4.1173336455148539e-05 -7.1631344925317362e-06 0.0000000000000000e+00  -3.2059759817772061e-05 -1.2873653453316343e-05 0.0000000000000000e+00  -2.2833396603733067e-05 -1.3057715296011094e-05 0.0000000000000000e+00  -1.2334033200848194e-05 -5.7101670513907837e-06 0.0000000000000000e+00  0.0000000000000000e+00 0.0000000000000000e+00 0.0000000000000000e+00  0.0000000000000000e+00 0.0000000000000000e+00 0.0000000000000000e+00  1.2371393202799282e-05 -5.6119622512981109e-06 0.0000000000000000e+00  2.3470464115899704e-05 -1.0698324513611748e-05 0.0000000000000000e+00  3.3952435475212005e-05 -1.1059854367310235e-05 0.0000000000000000e+00  4.4401593506953047e-05 -7.0510943580490163e-06 0.0000000000000000e+00  5.5315672784322639e-05 1.6952817967425922e-06 0.0000000000000000e+00  6.7342925319133578e-05 1.4883432986251275e-05 0.0000000000000000e+00  7.7448286510373025e-05 2.8293110824343780e-05 0.0000000000000000e+00  8.7141838546170135e-05 4.3136737970388508e-05 0.0000000000000000e+00  9.6644713524937192e-05 5.8783079530686157e-05 0.0000000000000000e+00  1.0071582328413749e-04 7.5265552784843675e-05 0.0000000000000000e+00  1.0686462308841181e-04 9.3100281034428611e-05 0.0000000000000000e+00  1.1330984351004875e-04 1.1135837329384709e-04 0.0000000000000000e+00  1.1936870185258343e-04 1.2972545794625242e-04 0.0000000000000000e+00  1.2342954019538730e-04 1.4673402802159360e-04 0.0000000000000000e+00  1.2742652582728296e-04 1.6346419683582777e-04 0.0000000000000000e+00  1.2949692220184808e-04 1.8200990472687120e-04 0.0000000000000000e+00  1.3005460853799899e-04 1.9983764996523093e-04 0.0000000000000000e+00  1.2980825877582648e-04 2.1632679666464384e-04 0.0000000000000000e+00  1.2862002329668351e-04 2.3202860948240046e-04 0.0000000000000000e+00  1.2680255994738978e-04 2.4799958084074984e-04 0.0000000000000000e+00  1.2365946178478359e-04 2.6416515619755523e-04 0.0000000000000000e+00  1.1942184540896837e-04 2.7961813045425621e-04 0.0000000000000000e+00  1.1426981634925076e-04 2.9388487282311679e-04 0.0000000000000000e+00  1.0833728986886057e-04 3.0677041481264673e-04 0.0000000000000000e+00  1.0164975651430427e-04 3.1826694646212768e-04 0.0000000000000000e+00  9.4168944622055920e-05 3.2832707753374071e-04 0.0000000000000000e+00  8.5968866855576877e-05 3.3690515327283884e-04 0.0000000000000000e+00  7.7216411056960294e-05 3.4413535919326001e-04 0.0000000000000000e+00  6.8084139357464554e-05 3.5034548423733356e-04 0.0000000000000000e+00  5.8719588406553046e-05 3.5595838185609012e-04 0.0000000000000000e+00  4.9259043692052062e-05 3.6141725669797987e-04 0.0000000000000000e+00  3.9858479033701571e-05 3.6716964771670176e-04 0.0000000000000000e+00  3.0651848991636665e-05 3.7361024655506583e-04 0.0000000000000000e+00  2.1741834646580441e-05 3.8061344944914416e-04 0.0000000000000000e+00  1.3337100107008887e-05 3.8665455287352940e-04 0.0000000000000000e+00  6.5759773304820633e-06 3.8933442739542642e-04 0.0000000000000000e+00  1.4311540808072281e-05 3.9208954549289530e-04 0.0000000000000000e+00  2.1574407331276531e-05 3.9439135812735878e-04 0.0000000000000000e+00  2