<?xml version="1.0"?>
<VTKFile type="UnstructuredGrid"  version="0.1"  >
<UnstructuredGrid>
<Piece  NumberOfPoints="3321" NumberOfCells="3200">
<Points>
<DataArray  type="Float64"  NumberOfComponents="3"  format="ascii">0 0 0  0.025 0 0  0.05 0 0  0.075 0 0  0.1 0 0  0.125 0 0  0.15 0 0  0.175 0 0  0.2 0 0  0.225 0 0  0.25 0 0  0.275 0 0  0.3 0 0  0.325 0 0  0.35 0 0  0.375 0 0  0.4 0 0  0.425 0 0  0.45 0 0  0.475 0 0  0.5 0 0  0.525 0 0  0.55 0 0  0.575 0 0  0.6 0 0  0.625 0 0  0.65 0 0  0.675 0 0  0.7 0 0  0.725 0 0  0.75 0 0  0.775 0 0  0.8 0 0  0.825 0 0  0.85 0 0  0.875 0 0  0.9 0 0  0.925 0 0  0.95 0 0  0.975 0 0  1 0 0  1.025 0 0  1.05 0 0  1.075 0 0  1.1 0 0  1.125 0 0  1.15 0 0  1.175 0 0  1.2 0 0  1.225 0 0  1.25 0 0  1.275 0 0  1.3 0 0  1.325 0 0  1.35 0 0  1.375 0 0  1.4 0 0  1.425 0 0  1.45 0 0  1.475 0 0  1.5 0 0  1.525 0 0  1.55 0 0  1.575 0 0  1.6 0 0  1.625 0 0  1.65 0 0  1.675 0 0  1.7 0 0  1.725 0 0  1.75 0 0  1.775 0 0  1.8 0 0  1.825 0 0  1.85 0 0  1.875 0 0  1.9 0 0  1.925 0 0  1.95 0 0  1.975 0 0  2 0 0  0 0.025 0  0.025 0.025 0  0.05 0.025 0  0.075 0.025 0  0.1 0.025 0  0.125 0.025 0  0.15 0.025 0  0.175 0.025 0  0.2 0.025 0  0.225 0.025 0  0.25 0.025 0  0.275 0.025 0  0.3 0.025 0  0.325 0.025 0  0.35 0.025 0  0.375 0.025 0  0.4 0.025 0  0.425 0.025 0  0.45 0.025 0  0.475 0.025 0  0.5 0.025 0  0.525 0.025 0  0.55 0.025 0  0.575 0.025 0  0.6 0.025 0  0.625 0.025 0  0.65 0.025 0  0.675 0.025 0  0.7 0.025 0  0.725 0.025 0  0.75 0.025 0  0.775 0.025 0  0.8 0.025 0  0.825 0.025 0  0.85 0.025 0  0.875 0.025 0  0.9 0.025 0  0.925 0.025 0  0.95 0.025 0  0.975 0.025 0  1 0.025 0  1.025 0.025 0  1.05 0.025 0  1.075 0.025 0  1.1 0.025 0  1.125 0.025 0  1.15 0.025 0  1.175 0.025 0  1.2 0.025 0  1.225 0.025 0  1.25 0.025 0  1.275 0.025 0  1.3 0.025 0  1.325 0.025 0  1.35 0.025 0  1.375 0.025 0  1.4 0.025 0  1.425 0.025 0  1.45 0.025 0  1.475 0.025 0  1.5 0.025 0  1.525 0.025 0  1.55 0.025 0  1.575 0.025 0  1.6 0.025 0  1.625 0.025 0  1.65 0.025 0  1.675 0.025 0  1.7 0.025 0  1.725 0.025 0  1.75 0.025 0  1.775 0.025 0  1.8 0.025 0  1.825 0.025 0  1.85 0.025 0  1.875 0.025 0  1.9 0.025 0  1.925 0.025 0  1.95 0.025 0  1.975 0.025 0  2 0.025 0  0 0.05 0  0.025 0.05 0  0.05 0.05 0  0.075 0.05 0  0.1 0.05 0  0.125 0.05 0  0.15 0.05 0  0.175 0.05 0  0.2 0.05 0  0.225 0.05 0  0.25 0.05 0  0.275 0.05 0  0.3 0.05 0  0.325 0.05 0  0.35 0.05 0  0.375 0.05 0  0.4 0.05 0  0.425 0.05 0  0.45 0.05 0  0.475 0.05 0  0.5 0.05 0  0.525 0.05 0  0.55 0.05 0  0.575 0.05 0  0.6 0.05 0  0.625 0.05 0  0.65 0.05 0  0.675 0.05 0  0.7 0.05 0  0.725 0.05 0  0.75 0.05 0  0.775 0.05 0  0.8 0.05 0  0.825 0.05 0  0.85 0.05 0  0.875 0.05 0  0.9 0.05 0  0.925 0.05 0  0.95 0.05 0  0.975 0.05 0  1 0.05 0  1.025 0.05 0  1.05 0.05 0  1.075 0.05 0  1.1 0.05 0  1.125 0.05 0  1.15 0.05 0  1.175 0.05 0  1.2 0.05 0  1.225 0.05 0  1.25 0.05 0  1.275 0.05 0  1.3 0.05 0  1.325 0.05 0  1.35 0.05 0  1.375 0.05 0  1.4 0.05 0  1.425 0.05 0  1.45 0.05 0  1.475 0.05 0  1.5 0.05 0  1.525 0.05 0  1.55 0.05 0  1.575 0.05 0  1.6 0.05 0  1.625 0.05 0  1.65 0.05 0  1.675 0.05 0  1.7 0.05 0  1.725 0.05 0  1.75 0.05 0  1.775 0.05 0  1.8 0.05 0  1.825 0.05 0  1.85 0.05 0  1.875 0.05 0  1.9 0.05 0  1.925 0.05 0  1.95 0.05 0  1.975 0.05 0  2 0.05 0  0 0.075 0  0.025 0.075 0  0.05 0.075 0  0.075 0.075 0  0.1 0.075 0  0.125 0.075 0  0.15 0.075 0  0.175 0.075 0  0.2 0.075 0  0.225 0.075 0  0.25 0.075 0  0.275 0.075 0  0.3 0.075 0  0.325 0.075 0  0.35 0.075 0  0.375 0.075 0  0.4 0.075 0  0.425 0.075 0  0.45 0.075 0  0.475 0.075 0  0.5 0.075 0  0.525 0.075 0  0.55 0.075 0  0.575 0.075 0  0.6 0.075 0  0.625 0.075 0  0.65 0.075 0  0.675 0.075 0  0.7 0.075 0  0.725 0.075 0  0.75 0.075 0  0.775 0.075 0  0.8 0.075 0  0.825 0.075 0  0.85 0.075 0  0.875 0.075 0  0.9 0.075 0  0.925 0.075 0  0.95 0.075 0  0.975 0.075 0  1 0.075 0  1.025 0.075 0  1.05 0.075 0  1.075 0.075 0  1.1 0.075 0  1.125 0.075 0  1.15 0.075 0  1.175 0.075 0  1.2 0.075 0  1.225 0.075 0  1.25 0.075 0  1.275 0.075 0  1.3 0.075 0  1.325 0.075 0  1.35 0.075 0  1.375 0.075 0  1.4 0.075 0  1.425 0.075 0  1.45 0.075 0  1.475 0.075 0  1.5 0.075 0  1.525 0.075 0  1.55 0.075 0  1.575 0.075 0  1.6 0.075 0  1.625 0.075 0  1.65 0.075 0  1.675 0.075 0  1.7 0.075 0  1.725 0.075 0  1.75 0.075 0  1.775 0.075 0  1.8 0.075 0  1.825 0.075 0  1.85 0.075 0  1.875 0.075 0  1.9 0.075 0  1.925 0.075 0  1.95 0.075 0  1.975 0.075 0  2 0.075 0  0 0.1 0  0.025 0.1 0  0.05 0.1 0  0.075 0.1 0  0.1 0.1 0  0.125 0.1 0  0.15 0.1 0  0.175 0.1 0  0.2 0.1 0  0.225 0.1 0  0.25 0.1 0  0.275 0.1 0  0.3 0.1 0  0.325 0.1 0  0.35 0.1 0  0.375 0.1 0  0.4 0.1 0  0.425 0.1 0  0.45 0.1 0  0.475 0.1 0  0.5 0.1 0  0.525 0.1 0  0.55 0.1 0  0.575 0.1 0  0.6 0.1 0  0.625 0.1 0  0.65 0.1 0  0.675 0.1 0  0.7 0.1 0  0.725 0.1 0  0.75 0.1 0  0.775 0.1 0  0.8 0.1 0  0.825 0.1 0  0.85 0.1 0  0.875 0.1 0  0.9 0.1 0  0.925 0.1 0  0.95 0.1 0  0.975 0.1 0  1 0.1 0  1.025 0.1 0  1.05 0.1 0  1.075 0.1 0  1.1 0.1 0  1.125 0.1 0  1.15 0.1 0  1.175 0.1 0  1.2 0.1 0  1.225 0.1 0  1.25 0.1 0  1.275 0.1 0  1.3 0.1 0  1.325 0.1 0  1.35 0.1 0  1.375 0.1 0  1.4 0.1 0  1.425 0.1 0  1.45 0.1 0  1.475 0.1 0  1.5 0.1 0  1.525 0.1 0  1.55 0.1 0  1.575 0.1 0  1.6 0.1 0  1.625 0.1 0  1.65 0.1 0  1.675 0.1 0  1.7 0.1 0  1.725 0.1 0  1.75 0.1 0  1.775 0.1 0  1.8 0.1 0  1.825 0.1 0  1.85 0.1 0  1.875 0.1 0  1.9 0.1 0  1.925 0.1 0  1.95 0.1 0  1.975 0.1 0  2 0.1 0  0 0.125 0  0.025 0.125 0  0.05 0.125 0  0.075 0.125 0  0.1 0.125 0  0.125 0.125 0  0.15 0.125 0  0.175 0.125 0  0.2 0.125 0  0.225 0.125 0  0.25 0.125 0  0.275 0.125 0  0.3 0.125 0  0.325 0.125 0  0.35 0.125 0  0.375 0.125 0  0.4 0.125 0  0.425 0.125 0  0.45 0.125 0  0.475 0.125 0  0.5 0.125 0  0.525 0.125 0  0.55 0.125 0  0.575 0.125 0  0.6 0.125 0  0.625 0.125 0  0.65 0.125 0  0.675 0.125 0  0.7 0.125 0  0.725 0.125 0  0.75 0.125 0  0.775 0.125 0  0.8 0.125 0  0.825 0.125 0  0.85 0.125 0  0.875 0.125 0  0.9 0.125 0  0.925 0.125 0  0.95 0.125 0  0.975 0.125 0  1 0.125 0  1.025 0.125 0  1.05 0.125 0  1.075 0.125 0  1.1 0.125 0  1.125 0.125 0  1.15 0.125 0  1.175 0.125 0  1.2 0.125 0  1.225 0.125 0  1.25 0.125 0  1.275 0.125 0  1.3 0.125 0  1.325 0.125 0  1.35 0.125 0  1.375 0.125 0  1.4 0.125 0  1.425 0.125 0  1.45 0.125 0  1.475 0.125 0  1.5 0.125 0  1.525 0.125 0  1.55 0.125 0  1.575 0.125 0  1.6 0.125 0  1.625 0.125 0  1.65 0.125 0  1.675 0.125 0  1.7 0.125 0  1.725 0.125 0  1.75 0.125 0  1.775 0.125 0  1.8 0.125 0  1.825 0.125 0  1.85 0.125 0  1.875 0.125 0  1.9 0.125 0  1.925 0.125 0  1.95 0.125 0  1.975 0.125 0  2 0.125 0  0 0.15 0  0.025 0.15 0  0.05 0.15 0  0.075 0.15 0  0.1 0.15 0  0.125 0.15 0  0.15 0.15 0  0.175 0.15 0  0.2 0.15 0  0.225 0.15 0  0.25 0.15 0  0.275 0.15 0  0.3 0.15 0  0.325 0.15 0  0.35 0.15 0  0.375 0.15 0  0.4 0.15 0  0.425 0.15 0  0.45 0.15 0  0.475 0.15 0  0.5 0.15 0  0.525 0.15 0  0.55 0.15 0  0.575 0.15 0  0.6 0.15 0  0.625 0.15 0  0.65 0.15 0  0.675 0.15 0  0.7 0.15 0  0.725 0.15 0  0.75 0.15 0  0.775 0.15 0  0.8 0.15 0  0.825 0.15 0  0.85 0.15 0  0.875 0.15 0  0.9 0.15 0  0.925 0.15 0  0.95 0.15 0  0.975 0.15 0  1 0.15 0  1.025 0.15 0  1.05 0.15 0  1.075 0.15 0  1.1 0.15 0  1.125 0.15 0  1.15 0.15 0  1.175 0.15 0  1.2 0.15 0  1.225 0.15 0  1.25 0.15 0  1.275 0.15 0  1.3 0.15 0  1.325 0.15 0  1.35 0.15 0  1.375 0.15 0  1.4 0.15 0  1.425 0.15 0  1.45 0.15 0  1.475 0.15 0  1.5 0.15 0  1.525 0.15 0  1.55 0.15 0  1.575 0.15 0  1.6 0.15 0  1.625 0.15 0  1.65 0.15 0  1.675 0.15 0  1.7 0.15 0  1.725 0.15 0  1.75 0.15 0  1.775 0.15 0  1.8 0.15 0  1.825 0.15 0  1.85 0.15 0  1.875 0.15 0  1.9 0.15 0  1.925 0.15 0  1.95 0.15 0  1.975 0.15 0  2 0.15 0  0 0.175 0  0.025 0.175 0  0.05 0.175 0  0.075 0.175 0  0.1 0.175 0  0.125 0.175 0  0.15 0.175 0  0.175 0.175 0  0.2 0.175 0  0.225 0.175 0  0.25 0.175 0  0.275 0.175 0  0.3 0.175 0  0.325 0.175 0  0.35 0.175 0  0.375 0.175 0  0.4 0.175 0  0.425 0.175 0  0.45 0.175 0  0.475 0.175 0  0.5 0.175 0  0.525 0.175 0  0.55 0.175 0  0.575 0.175 0  0.6 0.175 0  0.625 0.175 0  0.65 0.175 0  0.675 0.175 0  0.7 0.175 0  0.725 0.175 0  0.75 0.175 0  0.775 0.175 0  0.8 0.175 0  0.825 0.175 0  0.85 0.175 0  0.875 0.175 0  0.9 0.175 0  0.925 0.175 0  0.95 0.175 0  0.975 0.175 0  1 0.175 0  1.025 0.175 0  1.05 0.175 0  1.075 0.175 0  1.1 0.175 0  1.125 0.175 0  1.15 0.175 0  1.175 0.175 0  1.2 0.175 0  1.225 0.175 0  1.25 0.175 0  1.275 0.175 0  1.3 0.175 0  1.325 0.175 0  1.35 0.175 0  1.375 0.175 0  1.4 0.175 0  1.425 0.175 0  1.45 0.175 0  1.475 0.175 0  1.5 0.175 0  1.525 0.175 0  1.55 0.175 0  1.575 0.175 0  1.6 0.175 0  1.625 0.175 0  1.65 0.175 0  1.675 0.175 0  1.7 0.175 0  1.725 0.175 0  1.75 0.175 0  1.775 0.175 0  1.8 0.175 0  1.825 0.175 0  1.85 0.175 0  1.875 0.175 0  1.9 0.175 0  1.925 0.175 0  1.95 0.175 0  1.975 0.175 0  2 0.175 0  0 0.2 0  0.025 0.2 0  0.05 0.2 0  0.075 0.2 0  0.1 0.2 0  0.125 0.2 0  0.15 0.2 0  0.175 0.2 0  0.2 0.2 0  0.225 0.2 0  0.25 0.2 0  0.275 0.2 0  0.3 0.2 0  0.325 0.2 0  0.35 0.2 0  0.375 0.2 0  0.4 0.2 0  0.425 0.2 0  0.45 0.2 0  0.475 0.2 0  0.5 0.2 0  0.525 0.2 0  0.55 0.2 0  0.575 0.2 0  0.6 0.2 0  0.625 0.2 0  0.65 0.2 0  0.675 0.2 0  0.7 0.2 0  0.725 0.2 0  0.75 0.2 0  0.775 0.2 0  0.8 0.2 0  0.825 0.2 0  0.85 0.2 0  0.875 0.2 0  0.9 0.2 0  0.925 0.2 0  0.95 0.2 0  0.975 0.2 0  1 0.2 0  1.025 0.2 0  1.05 0.2 0  1.075 0.2 0  1.1 0.2 0  1.125 0.2 0  1.15 0.2 0  1.175 0.2 0  1.2 0.2 0  1.225 0.2 0  1.25 0.2 0  1.275 0.2 0  1.3 0.2 0  1.325 0.2 0  1.35 0.2 0  1.375 0.2 0  1.4 0.2 0  1.425 0.2 0  1.45 0.2 0  1.475 0.2 0  1.5 0.2 0  1.525 0.2 0  1.55 0.2 0  1.575 0.2 0  1.6 0.2 0  1.625 0.2 0  1.65 0.2 0  1.675 0.2 0  1.7 0.2 0  1.725 0.2 0  1.75 0.2 0  1.775 0.2 0  1.8 0.2 0  1.825 0.2 0  1.85 0.2 0  1.875 0.2 0  1.9 0.2 0  1.925 0.2 0  1.95 0.2 0  1.975 0.2 0  2 0.2 0  0 0.225 0  0.025 0.225 0  0.05 0.225 0  0.075 0.225 0  0.1 0.225 0  0.125 0.225 0  0.15 0.225 0  0.175 0.225 0  0.2 0.225 0  0.225 0.225 0  0.25 0.225 0  0.275 0.225 0  0.3 0.225 0  0.325 0.225 0  0.35 0.225 0  0.375 0.225 0  0.4 0.225 0  0.425 0.225 0  0.45 0.225 0 
[...]
<PointData  Vectors="displacements"> 
<DataArray  type="Float64"  Name="displacements"  NumberOfComponents="3" format="ascii">0.0000000000000000e+00 0.0000000000000000e+00 0.0000000000000000e+00  4.8141205899597517e-09 -3.5509476308688452e-07 0.0000000000000000e+00  1.0313679101819854e-07 -5.0001722508042175e-07 0.0000000000000000e+00  2.3122419419392393e-07 -5.7958631775819650e-07 0.0000000000000000e+00  3.6183458754184599e-07 -6.1167828226533169e-07 0.0000000000000000e+00  4.9355955743746982e-07 -6.1817300075201286e-07 0.0000000000000000e+00  6.2890643948849543e-07 -5.9737972836791335e-07 0.0000000000000000e+00  7.6079146478759129e-07 -5.4600244638092249e-07 0.0000000000000000e+00  8.6621234852776809e-07 -4.7034842836828001e-07 0.0000000000000000e+00  9.3455725221882086e-07 -4.1266780726853225e-07 0.0000000000000000e+00  9.9380261790601205e-07 -3.6793064087083842e-07 0.0000000000000000e+00  1.0233243836105391e-06 -3.0552628545908787e-07 0.0000000000000000e+00  1.0340486602527736e-06 -2.5099343611028054e-07 0.0000000000000000e+00  1.0369494981217537e-06 -1.8955633874702860e-07 0.0000000000000000e+00  1.0185780410938722e-06 -1.2138952431014659e-07 0.0000000000000000e+00  9.8435358215620624e-07 -6.0188533865645130e-08 0.0000000000000000e+00  9.3942820036551470e-07 -8.1738018820179544e-09 0.0000000000000000e+00  8.8780673627770047e-07 3.8183612354987056e-08 0.0000000000000000e+00  8.2835273226840117e-07 8.2376773491141117e-08 0.0000000000000000e+00  7.5953087263817798e-07 1.2357746480013944e-07 0.0000000000000000e+00  6.8103657733374584e-07 1.5848398387374495e-07 0.0000000000000000e+00  5.9474497913815171e-07 1.8365820445869292e-07 0.0000000000000000e+00  5.0343966489540331e-07 1.9713842472470006e-07 0.0000000000000000e+00  4.1006625919293859e-07 1.9846007208430370e-07 0.0000000000000000e+00  3.1723619074150826e-07 1.8830064549644931e-07 0.0000000000000000e+00  2.2713376067913061e-07 1.6800812707288143e-07 0.0000000000000000e+00  1.4158578550789405e-07 1.3930315705738114e-07 0.0000000000000000e+00  6.2164108034520055e-08 1.0415052682522107e-07 0.0000000000000000e+00  -9.7679167143285699e-09 6.4731023857403704e-08 0.0000000000000000e+00  -7.3060612030186378e-08 2.3423332715290774e-08 0.0000000000000000e+00  -1.2679461736092392e-07 -1.7214823471268861e-08 0.0000000000000000e+00  -1.7037143007916633e-07 -5.4405775796055151e-08 0.0000000000000000e+00  -2.0405311481766922e-07 -8.4980663345565177e-08 0.0000000000000000e+00  -2.3123462926982719e-07 -1.0660906370138254e-07 0.0000000000000000e+00  -2.6086026693264705e-07 -1.2718470389959417e-07 0.0000000000000000e+00  -2.9368028803581621e-07 -1.7439167869777657e-07 0.0000000000000000e+00  -3.1286558089314725e-07 -2.2222544228205475e-07 0.0000000000000000e+00  -1.8649834423985219e-07 -3.2266895562200344e-07 0.0000000000000000e+00  -3.2303986587333444e-08 -4.6254715428402960e-07 0.0000000000000000e+00  1.6367242929251690e-07 -7.1031662472045632e-07 0.0000000000000000e+00  2.6045023926267741e-07 -6.8718476864923262e-07 0.0000000000000000e+00  3.5407403718421460e-07 -5.8875921793986940e-07 0.0000000000000000e+00  5.0915132171498851e-07 -2.8459679566660573e-07 0.0000000000000000e+00  6.3349170072820790e-07 -1.4451520119361573e-07 0.0000000000000000e+00  5.8423032918655526e-07 -1.1401050931103985e-07 0.0000000000000000e+00  5.7440973192838792e-07 -1.2082743039704489e-07 0.0000000000000000e+00  5.4188173164709014e-07 -8.3780065776638114e-08 0.0000000000000000e+00  4.9337395051786013e-07 -4.3005194230804351e-08 0.0000000000000000e+00  4.3947638150918646e-07 -6.0465270974219677e-09 0.0000000000000000e+00  3.8270560546811589e-07 3.0556191650163039e-08 0.0000000000000000e+00  3.2213860264496515e-07 6.9337362876445369e-08 0.0000000000000000e+00  2.5596810297111738e-07 1.1063134354517291e-07 0.0000000000000000e+00  1.8300955632430102e-07 1.5304171515003399e-07 0.0000000000000000e+00  1.0292659120659117e-07 1.9439669031912901e-07 0.0000000000000000e+00  1.6131732844312690e-08 2.3232374546539025e-07 0.0000000000000000e+00  -7.6406347139405573e-08 2.6457624292563155e-07 0.0000000000000000e+00  -1.7331483912774441e-07 2.8918428994588973e-07 0.0000000000000000e+00  -2.7290353244103694e-07 3.0453306395534001e-07 0.0000000000000000e+00  -3.7319320013308321e-07 3.0945668727568494e-07 0.0000000000000000e+00  -4.7195920559913973e-07 3.0340684183294712e-07 0.0000000000000000e+00  -5.6689899103089253e-07 2.8668895430223972e-07 0.0000000000000000e+00  -6.5608816616187997e-07 2.6044177927081588e-07 0.0000000000000000e+00  -7.3830256447707603e-07 2.2615782087447776e-07 0.0000000000000000e+00  -8.1313886436962924e-07 1.8477560228700306e-07 0.0000000000000000e+00  -8.8046993283011057e-07 1.3577295270986011e-07 0.0000000000000000e+00  -9.3933921010462147e-07 7.7298156781025131e-08 0.0000000000000000e+00  -9.8716721050785735e-07 7.1225241386961319e-09 0.0000000000000000e+00  -1.0185052917260837e-06 -7.3515924297175008e-08 0.0000000000000000e+00  -1.0293980926082653e-06 -1.5758671885521269e-07 0.0000000000000000e+00  -1.0176292788027879e-06 -2.2999042814422652e-07 0.0000000000000000e+00  -9.9813973685380853e-07 -2.9273754355202942e-07 0.0000000000000000e+00  -9.5945126327351393e-07 -3.6389929685018826e-07 0.0000000000000000e+00  -8.8782562019803310e-07 -4.2021910911866051e-07 0.0000000000000000e+00  -7.9842347003390637e-07 -4.7958682109914137e-07 0.0000000000000000e+00  -6.6851108168137056e-07 -5.4270399608330601e-07 0.0000000000000000e+00  -5.3633314107839131e-07 -5.6634625318699846e-07 0.0000000000000000e+00  -4.0453766407885675e-07 -5.6335271869763072e-07 0.0000000000000000e+00  -2.7331564589537369e-07 -5.3459416382020502e-07 0.0000000000000000e+00  -1.4552419095295744e-07 -4.5849926750984837e-07 0.0000000000000000e+00  -2.9434321617627587e-08 -3.3515666728995608e-07 0.0000000000000000e+00  0.0000000000000000e+00 0.0000000000000000e+00 0.0000000000000000e+00  0.0000000000000000e+00 0.0000000000000000e+00 0.0000000000000000e+00  1.1572142253871688e-07 -2.0759890747784370e-07 0.0000000000000000e+00  1.8310848769283631e-07 -3.6906757901382518e-07 0.0000000000000000e+00  2.7137216500702179e-07 -4.5312744007958437e-07 0.0000000000000000e+00  3.8114162733654912e-07 -4.8548027004568859e-07 0.0000000000000000e+00  4.9109106369470109e-07 -4.8977227581694503e-07 0.0000000000000000e+00  5.9316804434158097e-07 -4.7076152160261484e-07 0.0000000000000000e+00  7.0306847983143706e-07 -4.1650181648123433e-07 0.0000000000000000e+00  8.1803948428922027e-07 -3.4316551692607294e-07 0.0000000000000000e+00  9.3932822677028854e-07 -2.6101802342642362e-07 0.0000000000000000e+00  9.6345523439508094e-07 -1.9916217607522325e-07 0.0000000000000000e+00  9.7767357992177953e-07 -1.3158575095707006e-07 0.0000000000000000e+00  9.9717312113078080e-07 -7.8994901540191277e-08 0.0000000000000000e+00  9.9074308478575298e-07 -5.7579039174276741e-09 0.0000000000000000e+00  9.7185944852929885e-07 6.9836133886126929e-08 0.0000000000000000e+00  9.3962036596337689e-07 1.3625674378918292e-07 0.0000000000000000e+00  8.9978078693684006e-07 1.9029449659785843e-07 0.0000000000000000e+00  8.5220277950767459e-07 2.3936688027773979e-07 0.0000000000000000e+00  7.9661882670474827e-07 2.8751014082742047e-07 0.0000000000000000e+00  7.3191407258877784e-07 3.3315343023774652e-07 0.0000000000000000e+00  6.5945364715975262e-07 3.7170116563738098e-07 0.0000000000000000e+00  5.8096133027117542e-07 3.9941622082516760e-07 0.0000000000000000e+00  4.9853798952733458e-07 4.1422506629649755e-07 0.0000000000000000e+00  4.1420412127487200e-07 4.1582085428509334e-07 0.0000000000000000e+00  3.2979188407011521e-07 4.0506163426085036e-07 0.0000000000000000e+00  2.4691024700215726e-07 3.8344041437039530e-07 0.0000000000000000e+00  1.6700260470857448e-07 3.5276383690111762e-07 0.0000000000000000e+00  9.1378674953915107e-08 3.1505945223648650e-07 0.0000000000000000e+00  2.1207565550119051e-08 2.7257927440981464e-07 0.0000000000000000e+00  -4.2518595487240276e-08 2.2779637665887379e-07 0.0000000000000000e+00  -9.9012564235291917e-08 1.8335034375200497e-07 0.0000000000000000e+00  -1.4758813544633694e-07 1.4202568473119311e-07 0.0000000000000000e+00  -1.8720979803686857e-07 1.0676700925241940e-07 0.0000000000000000e+00  -2.1532022532080869e-07 8.0421965474785322e-08 0.0000000000000000e+00  -2.3068844658581289e-07 6.1483104737519663e-08 0.0000000000000000e+00  -2.4524883322701802e-07 2.2732141876571782e-08 0.0000000000000000e+00  -2.2651890885490181e-07 -9.6779309042375965e-08 0.0000000000000000e+00  -1.0044735626487759e-07 -1.8955012227594665e-07 0.0000000000000000e+00  3.6232061480052739e-08 -3.4345265214101718e-07 0.0000000000000000e+00  1.3085805838207678e-07 -4.6845628408557677e-07 0.0000000000000000e+00  2.0055202302652345e-07 -4.2757638140537654e-07 0.0000000000000000e+00  2.7172543857437683e-07 -3.4503657855790550e-07 0.0000000000000000e+00  3.7232673720819119e-07 -1.5679697513794163e-07 0.0000000000000000e+00  5.0210495750931118e-07 -1.9854946377130032e-08 0.0000000000000000e+00  6.2829389138311814e-07 7.1063213196188644e-08 0.0000000000000000e+00  5.6824673705029337e-07 7.4758975262065843e-08 0.0000000000000000e+00  5.1272406157068529e-07 1.1787256392116860e-07 0.0000000000000000e+00  4.6033739965699236e-07 1.5878012769515444e-07 0.0000000000000000e+00  4.0687427706654645e-07 1.9619316645361474e-07 0.0000000000000000e+00  3.5023112418628423e-07 2.3406893957918564e-07 0.0000000000000000e+00  2.8876111551681633e-07 2.7509530429769553e-07 0.0000000000000000e+00  2.2172310846882241e-07 3.1913514237857147e-07 0.0000000000000000e+00  1.4888911623110423e-07 3.6444422334050303e-07 0.0000000000000000e+00  7.0491339840569826e-08 4.0855652641928782e-07 0.0000000000000000e+00  -1.2870504204759571e-08 4.4889294196627138e-07 0.0000000000000000e+00  -1.0029138534175127e-07 4.8305601532340320e-07 0.0000000000000000e+00  -1.9062352113624484e-07 5.0896727678252091e-07 0.0000000000000000e+00  -2.8253294696342308e-07 5.2492234090208912e-07 0.0000000000000000e+00  -3.7452633759879618e-07 5.2965113626014200e-07 0.0000000000000000e+00  -4.6493978230828747e-07 5.2249632175010492e-07 0.0000000000000000e+00  -5.5198068042938300e-07 5.0369750443913226e-07 0.0000000000000000e+00  -6.3385515625229929e-07 4.7463332903622386e-07 0.0000000000000000e+00  -7.0935389541889694e-07 4.3720793500539910e-07 0.0000000000000000e+00  -7.7752082806377102e-07 3.9257909784408140e-07 0.0000000000000000e+00  -8.3750463496778914e-07 3.4031398210275685e-07 0.0000000000000000e+00  -8.8859612352887442e-07 2.7812948425410231e-07 0.0000000000000000e+00  -9.2933749836650937e-07 2.0330877840514790e-07 0.0000000000000000e+00  -9.5827703992664561e-07 1.1489305798329112e-07 0.0000000000000000e+00  -9.7150678904834154e-07 2.2437527463465347e-08 0.0000000000000000e+00  -9.7141281338097925e-07 -6.1274981729121734e-08 0.0000000000000000e+00  -9.4564179828794769e-07 -1.2170459449119822e-07 0.0000000000000000e+00  -9.2313679558198423e-07 -1.9885253292131354e-07 0.0000000000000000e+00  -8.8700846689716390e-07 -2.7435151827789750e-07 0.0000000000000000e+00  -7.6162419344229724e-07 -3.5884702811838485e-07 0.0000000000000000e+00  -6.4480204981743727e-07 -4.1226916352284618e-07 0.0000000000000000e+00  -5.3081674868741673e-07 -4.4024533652476551e-07 0.0000000000000000e+00  -4.1844275119795732e-07 -4.3751307178757031e-07 0.0000000000000000e+00  -3.1269550755103304e-07 -4.0501473240328134e-07 0.0000000000000000e+00  -2.1623506243900907e-07 -3.3835301744834523e-07 0.0000000000000000e+00  -1.3047859092568918e-07 -1.9702124677728624e-07 0.0000000000000000e+00  0.0000000000000000e+00 0.0000000000000000e+00 0.0000000000000000e+00  0.0000000000000000e+00 0.0000000000000000e+00 0.0000000000000000e+00  1.1547033684436313e-07 -1.1257298952278209e-07 0.0000000000000000e+00  1.9413393275565173e-07 -2.3553603190697798e-07 0.0000000000000000e+00  2.6585114731901727e-07 -3.2093772220686626e-07 0.0000000000000000e+00  3.4865061717375060e-07 -3.5927151409549481e-07 0.0000000000000000e+00  4.4058423124747834e-07 -3.5881084520903245e-07 0.0000000000000000e+00  5.2676953093829163e-07 -3.3710529125677375e-07 0.0000000000000000e+00  6.1855313407870654e-07 -2.8049443979115853e-07 0.0000000000000000e+00  7.1326246564527999e-07 -2.1398547490746215e-07 0.0000000000000000e+00  8.0925212191368935e-07 -1.4415830877105541e-07 0.0000000000000000e+00  9.0946727282984348e-07 -6.2535275216351553e-08 0.0000000000000000e+00  1.0260694213236330e-06 4.8519779525212718e-08 0.0000000000000000e+00  9.8366346528193759e-07 1.0039418353319020e-07 0.0000000000000000e+00  9.7615849894090736e-07 1.7758590006023296e-07 0.0000000000000000e+00  9.5072029640282462e-07 2.6630132837673743e-07 0.0000000000000000e+00  9.1929508591600154e-07 3.3497204026118322e-07 0.0000000000000000e+00  8.8031409579795666e-07 3.8669398462720442e-07 0.0000000000000000e+00  8.3839648497626407e-07 4.3737724530748638e-07 0.0000000000000000e+00  7.8468166068908359e-07 4.9154302967898044e-07 0.0000000000000000e+00  7.2203760530260640e-07 5.4223938274186385e-07 0.0000000000000000e+00  6.5192414008893980e-07 5.8465407044387166e-07 0.0000000000000000e+00  5.7675622535495302e-07 6.1455880099967290e-07 0.0000000000000000e+00  4.9850845084748116e-07 6.3027440829523147e-07 0.0000000000000000e+00  4.1880433623714024e-07 6.3190825582683346e-07 0.0000000000000000e+00  3.3881675656131428e-07 6.2063579848312492e-07 0.0000000000000000e+00  2.5957110240784363e-07 5.9804422702381916e-07 0.0000000000000000e+00  1.8208732287348310e-07 5.6592694082149845e-07 0.0000000000000000e+00  1.0742035616652983e-07 5.2627837567851485e-07 0.0000000000000000e+00  3.6603734952776920e-08 4.8137440176833793e-07 0.0000000000000000e+00  -2.9462234174137799e-08 4.3378626955105363e-07 0.0000000000000000e+00  -9.0082991539291856e-08 3.8625790538537367e-07 0.0000000000000000e+00  -1.4465111289240673e-07 3.4133046325925634e-07 0.0000000000000000e+00  -1.9176689628371167e-07 3.0077663412181407e-07 0.0000000000000000e+00  -2.2725973216055284e-07 2.6478414505609652e-07 0.0000000000000000e+00  -2.3997895779903052e-07 2.3796840713596731e-07 0.0000000000000000e+00  -2.2324047994174610e-07 2.2604020569313326e-07 0.0000000000000000e+00  -2.0238239958808524e-07 5.7370439057863145e-08 0.0000000000000000e+00  -1.0065721612371422e-07 -1.5420360788032540e-08 0.0000000000000000e+00  -1.0456096567500071e-08 -1.3845684632775122e-07 0.0000000000000000e+00  6.7479233761295309e-08 -2.2117466645691228e-07 0.0000000000000000e+00  1.4162505042922769e-07 -1.7698573575377143e-07 0.0000000000000000e+00  2.1855845460398920e-07 -1.0546578293924900e-07 0.0000000000000000e+00  3.0835014640303795e-07 1.2225940589799137e-08 0.0000000000000000e+00  4.2165169399395205e-07 1.0874699961506494e-07 0.0000000000000000e+00  5.5043090256417935e-07 1.9775531088431830e-07 0.0000000000000000e+00  5.3627354382686701e-07 2.7742203191246541e-07 0.0000000000000000e+00  4.8739493814158012e-07 3.2371811940628163e-07 0.0000000000000000e+00  4.3599505710832810e-07 3.6128461746717333e-07 0.0000000000000000e+00  3.8498557921470423e-07 3.9698486063936217e-07 0.0000000000000000e+00  3.2969278425142397e-07 4.3646847865273881e-07 0.0000000000000000e+00  2.6848220563863900e-07 4.8037367550143789e-07 0.0000000000000000e+00  2.0103057123075735e-07 5.2761696493402901e-07 0.0000000000000000e+00  1.2789476882134233e-07 5.7590790672877619e-07 0.0000000000000000e+00  4.9862571527974059e-08 6.2260964872931933e-07 0.0000000000000000e+00  -3.2178735202405072e-08 6.6504978387188886e-07 0.0000000000000000e+00  -1.1723383190056769e-07 7.0077612425392843e-07 0.0000000000000000e+00  -2.0423746535969301e-07 7.2770093514545084e-07 0.0000000000000000e+00  -2.9210806388370042e-07 7.4412529259993867e-07 0.0000000000000000e+00  -3.7975008917227141e-07 7.4872202507008550e-07 0.0000000000000000e+00  -4.6592916074876147e-07 7.4058428696144975e-07 0.0000000000000000e+00  -5.4897511279031413e-07 7.1962501830081515e-07 0.0000000000000000e+00  -6.2689131357757273e-07 6.8709062791897785e-07 0.0000000000000000e+00  -6.9767189547336523e-07 6.4618972029988474e-07 0.0000000000000000e+00  -7.6188905228581989e-07 5.9885951243871477e-07 0.0000000000000000e+00  -8.1828382684689292e-07 5.4320373018902834e-07 0.0000000000000000e+00  -8.6424352706584013e-07 4.7824159318792329e-07 0.0000000000000000e+00  -9.0253800931878536e-07 4.0120992807842861e-07 0.0000000000000000e+00  -9.2966483703404458e-07 3.0612091410429069e-07 0.0000000000000000e+00  -9.4684961450497517e-07 2.0035023083600307e-07 0.0000000000000000e+00  -9.5033027493840530e-07 1.1654621928855197e-07 0.0000000000000000e+00  -9.9194220213835200e-07 5.9739809491437517e-08 0.0000000000000000e+00  -8.7352695383525720e-07 -6.3905390473996343e-08 0.0000000000000000e+00  -7.7113431087370725e-07 -1.5290647468021934e-07 0.0000000000000000e+00  -6.7081552182937684e-07 -2.2905923593497992e-07 0.0000000000000000e+00  -5.8107284463005751e-07 -2.7798842540340370e-07 0.0000000000000000e+00  -4.8378122139021610e-07 -3.1352860795411459e-07 0.0000000000000000e+00  -3.9073628864851341e-07 -3.0706287105126125e-07 0.0000000000000000e+00  -3.0331413279818264e-07 -2.7632764798192408e-07 0.0000000000000000e+00  -2.2129553611883201e-07 -2.1081027213547622e-07 0.0000000000000000e+00  -1.2960367185577554e-07 -1.1318279540132911e-07 0.0000000000000000e+00  0.0000000000000000e+00 0.0000000000000000e+00 0.0000000000000000e+00  0.0000000000000000e+00 0.0000000000000000e+00 0.0000000000000000e+00  1.1065577835346175e-07 -1.2194281727506968e-09 0.0000000000000000e+00  1.6006827904668050e-07 -1.1249128949970197e-07 0.0000000000000000e+00  2.1605933443832813e-07 -1.8531998265647262e-07 0.0000000000000000e+00  2.8138989322126622e-07 -2.3054827124360526e-07 0.0000000000000000e+00  3.5218589099441943e-07 -2.2639477868854040e-07 0.0000000000000000e+00  4.1649804477106241e-07 -2.0259474168092884e-07 0.0000000000000000e+00  5.0253375767922017e-07 -1.4582335944686290e-07 0.0000000000000000e+00  5.9456637290197508e-07 -8.1567074787188556e-08 0.0000000000000000e+00  6.7665605174039578e-07 -1.2620984249442656e-08 0.0000000000000000e+00  7.6424029360261097e-07 6.5475982732269099e-08 0.0000000000000000e+00  8.6898830362630208e-07 1.6234521887274332e-07 0.0000000000000000e+00  9.8677473791932082e-07 2.6932715840779285e-07 0.0000000000000000e+00  9.5482036434383473e-07 3.6070087579933630e-07 0.0000000000000000e+00  9.5194988018939131e-07 4.6639388025670305e-07 0.0000000000000000e+00  9.1896793777344056e-07 5.3824425696622024e-07 0.0000000000000000e+00  8.9508768205797942e-07 5.7723229845279143e-07 0.0000000000000000e+00  8.4517673427924491e-07 6.3649008042728363e-07 0.0000000000000000e+00  7.8925834034152144e-07 6.9607662547618711e-07 0.0000000000000000e+00  7.2489273522811820e-07 7.5350963182254487e-07 0.0000000000000000e+00  6.5455609816990723e-07 8.0027125010389525e-07 0.0000000000000000e+00  5.7985723029747883e-07 8.3216126336066571e-07 0.0000000000000000e+00  5.0313418744321838e-07 8.4810716486868133e-07 0.0000000000000000e+00  4.2534013856407227e-07 8.4935558494903827e-07 0.0000000000000000e+00  3.4701276968798723e-07 8.3748790799820185e-07 0.0000000000000000e+00  2.6864169666346440e-07 8.1414288316001309e-07 0.0000000000000000e+00  1.9092574339223281e-07 7.8094159226422103e-07 0.0000000000000000e+00  1.1478641263359488e-07 7.3970979415043490e-07 0.0000000000000000e+00  4.1225211474336046e-08 6.9267978384726724e-07 0.0000000000000000e+00  -2.8843098779191975e-08 6.4255873337809466e-07 0.0000000000000000e+00  -9.4834959207900225e-08 5.9235536648392159e-07 0.0000000000000000e+00  -1.5673281933745227e-07 5.4489519339186655e-07 0.0000000000000000e+00  -2.1552317969424205e-07 5.0148082683297516e-07 0.0000000000000000e+00  -2.7292174480178261e-07 4.6133310168406634e-07 0.0000000000000000e+00  -3.3160414031184123e-07 4.2352732809798650e-07 0.0000000000000000e+00  -4.0619721079054481e-07 4.5923750939257875e-07 0.0000000000000000e+00  -2.6110610038417426e-07 2.7645693066612488e-07 0.0000000000000000e+00  -1.7459364954870869e-07 2.2324260628095258e-07