<?xml version="1.0"?>
<VTKFile type="UnstructuredGrid"  version="0.1"  >
<UnstructuredGrid>
<Piece  NumberOfPoints="1718" NumberOfCells="3242">
<Points>
<DataArray  type="Float64"  NumberOfComponents="3"  format="ascii">0 80 0  0 0 0  160 0 0  160 80 0  80 0 0  80 80 0  40 0 0  40 80 0  0 40 0  160 40 0  120 80 0  120 0 0  60 40 0  120 40 0  30 30 0  90 50 0  22.5 57.5 0  160 20 0  140 0 0  160 60 0  140 80 0  100 0 0  81.42857142857143 25.71428571428572 0  60 0 0  136.6666666666667 23.33333333333333 0  45.43478260869566 57.71739130434783 0  70 60 0  104.448051948052 22.77597402597402 0  140 50 0  50 20 0  100 80 0  110 60 0  20 0 0  0 20 0  0 60 0  20 80 0  60 80 0  127.8571428571429 63.57142857142857 0  70 13.45238095238095 0  120.6595411700269 17.14794678331409 0  43.03396957219624 40.89809128341126 0  90 12.34126984126984 0  17.5 17.5 0  95 65 0  14.375 33.125 0  35 15 0  103.1835960163961 39.55078804918819 0  75 45 0  145 65 0  149.5238095238095 30 0  24.53125 43.28125 0  11.328125 48.64955357142857 0  30 69.72222222222223 0  63.03099500669833 25.98450249665083 0  12.25 67.75 0  147.0833333333333 12.91666666666667 0  133.8888888888889 37.22222222222222 0  110 0 0  57.05142935931612 66.02571467965807 0  57.64988715017596 52.91363088739458 0  132.3087800602433 10.80601619908237 0  93.72429196772013 30.40269913090983 0  81.66666666666667 66.66666666666667 0  34.88420512826108 50.64239923514752 0  120.7142857142857 52.85714285714285 0  10 0 0  124.9637655733977 28.70771675587721 0  85.34568206369326 38.9629538089202 0  109.7947831303933 12.01464342601455 0  111.8057601301571 31.76564834986395 0  45.72175790179101 69.59146799301371 0  72.34067302477537 33.39927196063941 0  80.27777777777779 55.55555555555556 0  101.8164039836039 51.36719203279213 0  105 70 0  41.96603042780376 28.93206085560751 0  58.34561938654466 11.67280969327233 0  117.5396825396825 68.73015873015873 0  70 80 0  45 10 0  148.3556547619048 41.71130952380953 0  150 55 0  0 10 0  111.4124276895163 46.49018363820046 0  52.95762497245369 30.73936459826795 0  90 80 0  30 0 0  25.34090909090909 9.886363636363637 0  160 70 0  150 80 0  128.4183673469388 45.98072562358276 0  135.9266409266409 70.3088803088803 0  79.85780423280423 10.33730158730159 0  110 80 0  50 80 0  130 0 0  150 0 0  50 0 0  30 80 0  0 50 0  160 30 0  0 30 0  90 0 0  70 0 0  10 80 0  0 70 0  160 10 0  66.77723403763051 70 0  160 50 0  130 80 0  99.92447862208631 13.81953365169224 0  32.01559780278829 60.0731306412183 0  8.614130434782609 25 0  9.650135782421287 58.30301118262442 0  67.12362677655815 50.70787559218606 0  8.214285714285714 15 0  15 8.201530612244898 0  51.76701208687312 45.1723637175896 0  33.40645193878068 39.16920079832146 0  89.97787543000702 21.76052370832911 0  72.20291993689739 24.02042087891826 0  136.8367346938776 59.38775510204081 0  20.88888888888889 70.86111111111111 0  94.18293562798873 41.73617263361575 0  26.875 20.625 0  21.40625 27.65625 0  88.58333333333334 58.80555555555556 0  129.2756871534741 54.88763713577917 0  145.5952380952381 21.8452380952381 0  140.6642164695856 31.35506551613934 0  112.6093449587678 20.12196714318102 0  118.023549624076 8.662674837383332 0  128.4336201974832 20.8345196306986 0  43.34115799897627 49.43524063307726 0  103.4084667387001 31.13267516613812 0  125.7248137350178 72.20359572400389 0  39.58608602010001 63.79925007322822 0  75.18319879588159 72.62706651615187 0  65.06400234143457 6.726190476190476 0  118.1349206349206 60.59523809523809 0  8.883403066944267 40.10847913997437 0  16.89704082318838 40.75920917681162 0  23.9453125 35.2734375 0  95 6.170634920634919 0  32.84902597402598 7.383658008658007 0  152.5 62.5 0  151.25 71.25 0  42.5 17.5 0  34.6875 23.22916666666666 0  97.5 72.5 0  88.91025641025641 71.41025641025641 0  101.591798008198 59.77539402459409 0  82.36111111111111 47.91666666666666 0  68.1806390294541 40.45808291163771 0  37.88084981701691 72.05812209995953 0  76.7207000840295 17.56506392535849 0  55 73.75678223856679 0  103.764928201747 6.930547867525328 0  64.45989490129469 33.62900736838294 0  143.4615558010053 72.84342888700687 0  95.36483202491024 55.37984854519235 0  140.3402207868132 41.98704416476085 0  7.282161342235174 7.283898203062622 0  58.02759599894421 19.69972226086783 0  118.7755711837082 24.43064743883906 0  139.1854672887991 15.43546728879908 0  139.3916244756711 7.707121073144855 0  125 5.697593239906388 0  154.3413978494624 15 0  152.6019752220664 7.375177200681663 0  112.614903694564 39.15478391276105 0  7.045160455486543 32.21726190476191 0  152.9684017070325 22.25582561465356 0  97.10519643918053 23.80393318481981 0  18.55158261097978 63.80158261097977 0  5.413265306122449 65 0  154.7619047619048 35 0  49.98259895379135 37.759555354216 0  85 5.238406778613915 0  26.92362057383424 50.87748151054775 0  19.03536586738662 50.39706597770166 0  55 5.244994925495488 0  25.89413395373815 63.82948345768089 0  66.48137027262791 19.69946386506378 0  154.7869004830367 45 0  73.2956015301495 6.726190476190478 0  50.04518972145341 63.54647215803456 0  63.75561778348582 63.50689277606964 0  83.92914811448523 16.39909680979578 0  14.68816721719565 74.52945928479103 0  133.4944485726585 29.92111193675392 0  127.0270255538113 39.02401665794522 0  77.97387058440816 38.21310270346916 0  0 75 0  5 80 0  6.790816326530612 72.5 0  50.00868063192392 52.15547035335699 0  73.43801679906244 53.8445110700541 0  38.39929470623247 56.80479116512505 0  143.7244897959184 58.11224489795919 0  82.26160897951739 32.6713911452722 0  72.53566074414718 66.33649513624577 0  108.7016387209112 53.03551699329853 0  115 80 0  111.6312870529738 72.93435647351311 0  118.6238287905396 31.26536185024685 0  51.64264503573011 11.07705746845138 0  82.35160715222065 73.52311756069425 0  146.9333037135326 48.63339257293487 0  36.28782636855107 32.88137442977038 0  5.240483190185216 45.77161150090433 0  76.55498462281547 61.05249916248297 0  126.7194522684794 14.40917932784709 0  63.50119994715058 56.59729628005785 0  145.9652227467754 6.28447706427559 0  97.53746150406226 35.92440452630401 0  87.39740272220644 28.52800951952332 0  55.46012298051971 59.38338554027185 0  58.24942571748819 46.35207867955695 0  14.95133916948711 26.611543217912 0  110.5111597455814 66.50557987279069 0  26.015625 74.86111111111111 0  145.8386918011916 35.54633879389873 0  121.8244639628003 46.34705358936824 0  15.97415553749786 56.28669614513793 0  6.067344072757668 52.70767592909472 0  94.36929644625216 17.06118565274158 0  38.44159898029007 45.33743788718437 0  30.86961159258458 45.32771385217955 0  87.84717357778067 65.1312391000418 0  134.9786599089822 45.77309913174528 0  124.0933286816116 58.49883001043925 0  39.38396418511827 6.558017907440864 0  160 75 0  61.46948097221448 73.69935658621336 0  99.77595811440618 45.14381053560564 0  135 0 0  54.19231742030878 24.62238203919016 0  48.00112862595474 26.55581185896966 0  114.7409063223218 55.16495819209668 0  133.1951583278632 16.91148651410604 0  115.4474610315334 14.11502730878669 0  112.1605527710757 6.045977779743317 0  107.2276314340747 17.4480807450609 0  44.43662865878454 34.74223666672275 0  91.07084666933464 36.18609586891301 0  87.36625641542776 44.61076351380196 0  76.12062843919414 28.65331620276531 0  68.26756791823588 28.9614861891026 0  43.09016420198964 74.92177623726967 0  59.08728745496872 30.67745105621049 0  64.17421560117688 12.55338805689485 0  134.2919509206113 51.68487084886727 0  105.6982693025658 44.91748277932584 0  113.087346951348 26.00452646812954 0  55.63238987001323 36.01335578767866 0  11.88488953253733 19.8612266342491 0  107.75628691108 35.94795408356521 0  117.2577199434167 74.58769991123722 0  63.85234280438041 44.47893053769432 0  123.1124323526829 66.97883295933407 0  43.21890095930996 23.26207925455153 0  122.8962780194934 35.0679525483637 0  131.3685840118664 74.17917304169832 0  51.49360851623199 69.1509687536475 0  116.6513821776451 48.8145829077119 0  35.04400704667727 67.16691108533134 0  48.78203776771698 74.4171080359375 0  20.66178669132212 6.028324222138419 0  19.71780335167416 11.93970521563188 0  24.21392742002452 15.52625712181468 0  49.09041795245825 5.795208976229125 0  82.99126984126985 60.85873015873016 0  85.13888888888889 52.77777777777777 0  32.76343054581602 74.86111111111111 0  47.6065662852436 14.9467168573782 0  100.908201991802 65.68359601639607 0  102.5 75 0  40 12.5 0  155 57.5 0  154.1768471843557 50.85369436871144 0  155 80 0  130.1158029746924 68.70881465065135 0  133.5778374700582 64.12152074210607 0  139.2886395223132 64.56439075047574 0  128.6574427266953 33.33345727429305 0  96.32014919123017 49.72304762033837 0  132.5 5.115509227608756 0  25 0 0  149.5926639942433 17.8592292201945 0  107.8770119196571 27.86857284105351 0  27.90049439197167 5.05159140102322 0  30.2894406729634 12.21843024399842 0  18.88048562542535 22.79837091329794 0  45 0 0  115.8638205587976 43.45363122705552 0  53.87354757531059 16.10041987280661 0  105.7062138447582 63.24509181910022 0  77.29119361807091 49.96481822317554 0  144.5858634281453 27.3551853627357 0  79.99406043531211 43.14329720823346 0  139.3081119348083 36.63466599635863 0  95 80 0  155.15625 67.34375 0  65 80 0  92.5 75.31883849980865 0  138.5772575901466 74.89639088400126 0  27.9213743053455 56.33262203662795 0  61.76269814474262 68.38393244073208 0  69.98932919116852 74.48412792953894 0  0 35 0  38.62882509403016 37.75823196258695 0  154.7619047619048 27.69173273894861 0  13.27692049160078 62.38614272730547 0  44.8329015697868 64.38717517300117 0  71.63968515558899 18.81767894185224 0  155 0 0  160 5 0  122.9749403873669 10.62277185229854 0  131.6697015706627 24.98479050032123 0  99.23245028010682 19.01436481657935 0  85.09863484024307 10.48025887596853 0  79.83041089175953 5.16729598793754 0  74.85489830338629 11.66065298257996 0  131.4140114117337 41.76410814849226 0  125.3510974746874 50.29816236319723 0  123.9497739402538 23.55962190257666 0  69.55856115832559 45.77958010891886 0
[...]
<CellData  Scalars="density"> 
<DataArray  type="Float64"  Name="density"  format="ascii">9.9999999999999991e-05   5.1008411478350356e-02   7.9444086923643104e-02   3.8319473687021061e-01   2.7837815490126294e-01   3.0776359618701254e-01   6.3826665599447785e-01   5.4928440417737989e-01   3.1548619984341458e-01   1.0819735821932028e-02   2.2224106705022570e-01   2.5444935263293067e-01   1.0000000000000002e-04   9.9999999999999991e-05   9.6685573882385090e-01   8.9557444622640947e-01   6.1024699554960138e-01   6.8311301552964310e-01   1.0000000000000003e-04   3.6156252124081273e-01   6.4888979055145457e-01   5.1719281827982992e-03   3.7481434166297878e-01   8.0204134034269459e-01   2.1310794677029950e-02   3.1565168348681022e-01   1.0000000000000003e-04   1.5171610815842157e-01   9.9999999999999991e-05   1.0000000000000002e-04   9.6861015172533171e-01   9.9999999999999964e-05   3.2912926811782626e-03   7.0077110854674252e-01   2.6335557659261249e-01   4.0773987023102642e-01   9.9999999999999951e-05   7.4814607976189618e-01   2.8608348782128805e-02   9.7122359758040255e-01   9.6416975071168731e-01   9.9999999999999964e-05   7.6051416780767200e-01   7.5688615219351796e-01   1.0000000000000002e-04   2.9242718857463201e-01   2.3901795694991060e-01   9.9999999999999991e-05   1.0000000000000000e-04   9.9352107337082629e-01   8.1466580018200940e-01   1.0000000000000000e-04   8.6649343434326220e-01   2.7740887125060604e-01   1.0000000000000002e-04   9.9999999999999964e-05   9.9999999999999964e-05   9.6987154501220718e-01   9.3469392610345559e-01   6.4854676321246266e-02   1.0000000000000002e-04   8.3577917481856856e-01   7.3502870602431802e-01   1.0000000000000002e-04   5.8976653670477108e-01   9.5226852260083428e-01   4.4797113478022843e-03   9.7621945279406241e-01   7.4007416374373858e-01   1.0000000000000000e-04   1.3584966570028087e-01   9.9999999999999964e-05   2.3247797013976054e-01   3.1548162901158755e-01   9.5203402182335306e-01   7.4555437950348899e-02   9.9999999999999991e-05   9.9999999999999991e-05   4.0991018665094114e-01   2.8280823262282002e-02   2.8610833999113849e-01   1.0000000000000005e-04   8.6438828741011031e-01   9.6385962214125187e-01   1.5507189756269621e-01   7.4673414210892530e-01   1.0000000000000000e-04   3.8766273452270655e-01   9.4396966182672315e-01   1.9437547783609849e-01   6.5807735664386802e-01   3.4446851364302439e-01   2.2082616148406967e-01   7.2517491180636495e-01   1.0000000000000005e-04   9.9999999999999964e-05   9.6863782725660497e-01   1.2014109166668499e-01   9.6493378007949981e-01   6.6970709779388438e-01   4.0459868192408588e-01   9.1608372454593889e-01   5.7180125749497601e-02   8.2324861074832167e-01   3.1677962950231447e-01   1.4679659936607486e-01   1.0000000000000002e+00   1.0000000000000002e-04   1.9653952250369480e-01   6.1432498960946019e-02   9.8798406093055069e-01   9.1848971370969223e-01   1.0000000000000004e+00   9.9878851023349235e-01   1.0000000000000000e-04   9.9999999999999991e-05   9.9999999999999991e-05   9.9999999999999964e-05   2.0383812106895829e-01   9.7899915653946734e-01   2.9681519070382295e-01   2.1909877173127362e-01   8.9920769629349884e-01   5.4445255848189433e-02   9.9999999999999991e-05   9.9999999999999991e-05   5.3945920308959239e-01   4.4471974552740101e-01   7.8226812992128936e-01   9.9999999999999978e-05   1.0000000000000000e+00   9.1297798487982151e-01   1.0000000000000000e+00   9.7369473836810494e-01   1.0000000000000003e-04   4.1313450087237934e-02   9.5282396742224773e-01   3.5273858419152143e-01   1.0000000000000000e-04   2.3425223131475045e-02   1.0000000000000000e-04   2.8725031450081415e-02   9.9693453298784529e-01   8.6180269723732728e-01   1.0000000000000002e+00   9.9999999999999964e-05   3.6893732504475624e-01   3.1007722667645843e-01   1.1592150842390049e-02   1.0000000000000005e-04   5.9598253670439338e-01   9.9999999999999956e-01   8.8925750227748657e-01   7.4479638894469247e-01   1.3482540375859746e-02   1.0000000000000000e-04   7.3576236401307249e-01   7.6035113862073189e-01   2.0532698319489985e-02   1.5856510938809640e-01   9.3168007433703370e-01   9.7709290750299982e-01   1.0000000000000002e+00   1.0000000000000003e-04   1.0000000000000005e-04   2.4388927747071273e-01   9.9999999999999991e-05   9.9999999999999964e-05   1.0000000000000000e-04   9.7779693198083197e-03   7.1790179891967430e-03   1.6742715260028157e-02   9.8795635397031334e-01   1.6334173843958993e-01   9.7573204077488462e-01   1.4273372623876426e-01   8.3740802507704815e-01   9.0754912939509114e-01   3.0803007741223293e-01   9.4295965135890766e-02   6.3692566335902745e-01   2.9970590645145168e-01   9.9999999999999978e-05   4.1767208727486627e-01   7.3158854240148075e-01   9.9999999999999991e-05   1.0000000000000005e-04   7.3832637907555723e-03   7.4557047951743172e-02   9.6303174703090466e-01   6.9968961560060861e-01   1.9782787464610846e-01   9.2347391187218097e-01   8.6474662573582806e-01   8.4684460556341545e-01   1.0000000000000002e-04   1.0000000000000003e-04   1.0000000000000002e-04   1.0000000000000007e-04   9.9999999999999991e-05   1.0000000000000003e-04   5.6246172447926557e-01   9.7859262895445687e-01   8.5114707033151615e-01   9.1309920299359681e-01   1.0000000000000002e-04   1.0000000000000002e-04   2.3397234681845225e-01   8.8651667794290012e-01   4.4943307073728489e-01   9.6465394072487887e-01   4.5333761390541671e-01   8.5306895139840844e-01   1.0000000000000004e+00   9.3858966966955004e-01   9.9085963043669245e-01   5.9719936731885255e-02   1.6168752937908737e-01   1.0000000000000002e-04   9.5327334025431565e-01   9.0904929869457551e-01   1.0000000000000000e+00   9.7006993415506992e-01   1.4495710303259288e-01   8.2095853225796422e-01   3.9683487676081974e-01   9.1162347716006564e-01   4.0478591606595310e-01   9.6740580123136810e-01   8.3563760737862813e-01   1.0000000000000003e-04   9.9999999999999991e-05   1.0000000000000002e-04   6.5521810961751148e-01   9.3024352244845537e-03   7.0090050065581244e-01   6.1442855573708710e-01   5.1739521309552039e-01   3.2840059473682071e-01   1.0000000000000002e-04   5.5001489967126567e-02   9.9999999999999991e-05   1.0000000000000002e-04   9.9999999999999991e-05   9.9999999999999991e-05   1.0000000000000000e-04   2.8460006949485941e-02   1.0000000000000005e-04   1.0000000000000000e-04   7.5615090495782120e-02   9.9999999999999978e-05   9.9999999999999991e-05   9.9999999999999991e-05   9.9999999999999991e-05   4.4152086768339208e-03   1.3539016973783752e-01   4.4819665160381289e-01   7.9585872283257186e-01   6.0784829123879558e-01   2.6354543560012023e-01   8.6610768060289178e-01   9.9920877008991904e-01   1.0000000000000002e-04   1.0000000000000002e-04   1.0000000000000002e-04   1.0000000000000002e-04   9.2577226123841094e-01   9.7411230498229928e-01   8.7682825960882127e-01   2.4460561193785294e-04   1.2814300908992951e-01   9.9999999999999978e-01   9.1305809144967576e-01   7.9150450084375379e-01   9.4813924929568116e-01   3.7098101230910813e-01   3.0244039321593114e-02   1.2750497808499683e-02   2.4837158960459122e-04   8.8664998484503410e-01   7.2060863701587086e-01   7.5887973126862962e-01   9.7070404759017515e-01   2.6059099578971148e-02   2.5785698540332969e-01   9.9999999999999991e-05   9.9999999999999991e-05   1.8289728132470981e-01   1.0000000000000000e+00   9.9999999999999978e-01   9.9952715317474139e-01   8.5434127042116748e-01   3.2518535664077247e-01   1.9607824305041190e-02   5.8765262818026776e-01   2.4207346858368797e-01   1.8420450339134195e-01   9.8291613209783435e-01   8.7603037428945640e-01   4.5398715501966957e-01   4.1144116262585440e-01   9.9999999999999991e-05   9.9999999999999991e-05   1.7749618116063681e-01   6.6667062583525586e-03   1.8767045043054528e-02   1.0000000000000005e-04   1.0000000000000000e-04   9.9999999999999978e-05   9.8240830663337142e-01   9.9536386739198357e-01   1.0000000000000000e-04   1.0000000000000002e-04   8.3058173048331629e-02   1.9460126050393192e-01   9.6906388209501704e-01   8.8224362460173633e-01   7.3915655277283820e-01   9.6410595854842007e-01   2.5639872112358162e-02   1.0174107063447177e-01   9.9999999999999991e-05   5.7176315717839599e-01   7.6389638613961264e-01   2.3132371628883924e-01   2.3471323027309157e-02   2.0912159109906386e-01   3.0720859623733499e-01   1.0000000000000006e-04   9.9999999999999991e-05   1.0000000000000005e-04   1.0000000000000000e-04   3.8227684591897530e-04   4.9617381201789762e-04   4.5227546935221430e-01   9.4061312471315717e-01   1.0000000000000000e-04   9.9999999999999991e-05   3.7589967975677430e-02   6.4142770014581385e-01   9.9999999999999989e-01   9.8808297813552282e-01   9.5333968665565949e-01   9.9999999999999978e-05   1.0000000000000003e-04   1.6044063527104840e-02   9.3676882950439258e-02   1.0000000000000000e-04   7.0098487264168374e-01   9.7155146261272318e-01   5.8969381515629293e-01   5.2037968097346632e-01   9.9999999999999964e-05   9.9999999999999978e-05   3.9263865989046326e-01   5.1128084163719389e-01   4.3857343642231256e-01   3.9276888108833252e-01   9.2019678525619941e-01   9.8286804161563701e-01   9.8425262380188849e-01   9.5132374828185851e-01   9.9999999999999991e-05   9.9999999999999991e-05   9.9999999999999964e-05   1.0000000000000002e-04   1.0000000000000002e-04   1.0000000000000000e-04   9.8616400282283656e-01   6.4442145199378009e-01   9.6340398400333327e-01   9.6258476466846354e-01   2.0383240417010606e-01   7.3048390920439887e-01   6.3088868598467274e-01   4.2124688704138083e-03   9.9871082436132308e-01   9.6839644927605439e-01   2.5311366337508429e-01   4.0144445103042004e-01   8.2352077093877740e-01   6.6458837747205346e-01   9.9999999999999991e-05   1.0000000000000002e-04   9.9999999999999991e-05   1.0000000000000003e-04   1.0000000000000002e-04   1.0000000000000002e-04   9.0678567314828218e-01   1.9492327186087108e-01   4.6442610961268793e-01   2.1061661642377141e-01   8.2053673796949389e-01   8.3132154645853273e-01   5.7179556340214666e-01   3.3088470368200784e-01   1.3442761289781623e-03   2.3034757279476141e-04   6.7873857856778819e-01   9.9040415144257210e-01   1.0000000000000000e-04   9.9999999999999978e-05   2.5903694112731640e-01   8.8955592944616382e-03   8.5296478321402303e-01   9.8699013612309583e-01   9.9999999999999991e-05   9.9999999999999991e-05   9.9999999999999951e-05   9.9999999999999964e-05   1.0000000000000002e-04   7.4151910532540222e-02   7.8744851632379054e-01   9.9803188299625789e-01   9.1002859974671813e-01   2.0799945596536421e-01   3.7000136990378152e-01   7.3794728735292625e-01   7.2996756084337588e-02   1.2391647233983805e-02   9.4658778948455125e-01   5.4267368183190423e-01   9.9999999999999978e-05   9.9999999999999964e-05   6.6542304415228060e-01   4.3419187351361849e-01   7.6332094682953455e-01   9.7733328749088022e-01   2.1095043443308176e-01   7.0726479369501094e-01   8.1601596797573028e-01   4.8619841646512990e-01   9.9999999999999967e-01   8.4407332093443188e-01   7.2645075737045783e-01   8.5185441899342762e-01   3.4812962301549372e-01   9.4929236744147538e-01   7.7447811609359152e-01   1.4062970879087186e-01   4.3321428340019036e-01   6.7489397563714049e-01   8.1403000227035205e-01   5.5089131696239513e-01   8.6188388521082859e-01   1.0000000000000000e-04   1.9903781564222645e-01   1.0000000000000002e-04   3.2309115497823282e-01   5.5640523292154125e-02   2.9035041404852413e-02   9.9999999999999978e-05   9.9999999999999991e-05   9.9999999999999991e-05   3.2515607401754756e-02   7.9339057331244889e-01   9.9999999999999951e-05   1.0000000000000000e-04   9.9999999999999964e-05   9.9999999999999991e-05   1.0000000000000000e+00   1.1576080541433027e-01   9.9999999999999978e-05   6.3927823756248586e-02   4.8808567365422030e-02   9.9999999999999967e-01   1.0000000000000002e+00   5.4357426149218246e-01   7.3741676549098967e-01   1.0605145067928555e-01   9.9999999999999978e-05   1.0000000000000002e+00   9.9999999999999991e-05   1.0000000000000002e-04   1.7909257474081237e-04   6.4616102942512443e-01   1.1451169063261250e-01   9.9636888531589241e-01   8.5508187222736964e-01   4.9995585939093895e-02   1.0000000000000003e-04   6.1980649255750520e-01   2.7310323230676413e-02   7.3364236422315876e-01   8.2173493448278900e-01   4.1383086830784083e-01   7.9976563795912936e-01   1.0000000000000006e-04   1.0000000000000000e+00   1.0000000000000002e+00   1.0000000000000000e+00   1.0000000000000000e+00   9.9999999999999978e-05   7.7413276970925027e-01   1.6352978251335093e-01   3.4246276975474093e-04   3.3259136214751329e-02   3.9716353184292913e-01   6.0720468878653822e-01   9.9999999999999964e-05   9.9999999999999978e-05   9.9999999999999991e-05   9.9999999999999991e-05   8.3418046197937068e-01   9.1028161182752920e-01   6.3115219383541865e-03   2.9844321418144314e-02   4.7639627846149460e-02   1.9537256154387306e-01   7.4155026248894385e-01   8.0952510896628860e-01   9.9999999999999991e-05   9.9999999999999991e-05   2.9346133087698220e-02   1.0000000000000006e-04   9.8363388794736684e-01   9.5617771977697275e-01   3.4356441193039772e-01   6.8172383209559304e-02   9.5127393735220078e-01   8.3234599867777126e-01   9.9999999999999978e-01   8.1285914862881770e-01   2.5642358366542708e-03   2.3893532097392525e-01   1.0000000000000002e-04   2.6158715437517413e-04   3.7406147695585742e-02   3.2983572148757695e-01   9.4171513223790748e-01   8.6083901134826790e-01   4.4575781598951314e-02   7.9381764592048809e-01   1.0000000000000004e+00   9.6471916291628446e-01   9.9999999999999989e-01   9.9696568170179933e-01   1.0000000000000002e-04   9.9999999999999991e-05   9.9999999999999964e-05   9.9999999999999991e-05   5.7626508999298931e-01   9.0005567626093430e-01   9.8678715299733610e-01   3.7657254399370077e-01   2.3487491568580446e-01   9.6024901573130617e-01   7.5418479164157748e-01   8.0575390167770811e-01   9.7620523141587889e-01   2.3882919531338595e-01   4.0748125222214604e-01   8.9664996349797110e-01   6.4849278463832127e-01   9.9468286078080626e-01   1.0000000000000000e-04   1.0000000000000002e-04   6.8023213129536197e-01   9.4790631778842027e-01   9.5199849326957431e-01   1.0000000000000004e+00   1.0000000000000002e+00   9.9999999999999989e-01   9.9999999999999991e-05   9.9999999999999991e-05   1.0000000000000002e-04   9.1887290454679504e-01   9.4852306804672759e-01   9.9999999999999978e-01   9.9999999999999991e-05   9.9999999999999991e-05   1.2416673889300271e-01   1.0000000000000003e-04   1.0000000000000000e-04   9.9999999999999964e-05   1.0000000000000000e-04   2.8781475065723638e-01   6.2625322679460693e-01   9.7580347206102847e-01   9.9999999999999989e-01   9.7750929566983835e-01   1.0000000000000002e+00   9.2057586446248862e-01   1.0000000000000000e-04   1.0000000000000000e+00   2.3777813434331638e-01   9.9999999999999978e-05   9.9999999999999991e-05   9.9999999999999978e-05   9.9999999999999978e-05   9.9999999999999991e-05   6.9288507280124523e-01   1.0000000000000000e+00   1.0000000000000000e+00   9.9999999999999991e-05   9.9999999999999991e-05   9.9999999999999991e-05   1.0000000000000002e-04   9.8705995889217057e-01   1.2216143531803319e-02   1.0000000000000002e-04   1.0000000000000000e-04   9.9999999999999991e-05   1.0000000000000000e-04   8.5883004120984230e-01   8.1018112554819266e-01   1.0000000000000002e-04   1.0000000000000005e-04   6.1366696944172994e-01   9.2735344279998644e-01   3.7572726319496674e-01   6.9223950741189103e-02   9.9306377549463720e-01   8.9689441072332821e-01   1.7390625043740260e-01   1.4160559047421346e-02   1.0000000000000000e-04   9.9999999999999991e-05   4.3097585184823972e-01   8.1368760876949164e-02   1.6324443849610813e-03   1.0000000000000003e-04   9.9999999999999991e-05   9.9999999999999978e-05   1.0000000000000005e-04   1.0000000000000000e-04   9.9999999999999978e-05   9.9999999999999991e-05   9.9999999999999991e-05   1.0000000000000000e-04   8.9445373270647788e-01   7.3845526508471193e-01   4.8418203957649470e-03   1.0000000000000000e-04   9.2746866253342986e-01   9.8403261337021986e-01   3.9921208839255140e-01   9.6029560763588748e-02   6.8962958922858708e-01   8.9190149901290683e-01   2.9864453815707165e-01   9.3379082487259915e-02   4.4408989343314059e-01   2.8260215464880323e-01   9.6074038875735268e-01   7.3808130962744112e-01   9.9999999999999991e-05   1.0000000000000000e-04   9.9999999999999991e-05   9.9999999999999991e-05   9.9999999999999991e-05   6.1348775892320728e-01   6.0443970958652693e-01   9.4451440703103473e-01   9.2885157378648364e-01   1.0000000000000002e-04   1.0000000000000005e-04   1.0000000000000003e-04   4.2011145968945229e-01   6.9350592468818895e-01   8.3527879208873779e-01   8.2859872127633116e-01   9.7747181097828775e-02   2.4380276027565514e-01   1.0441103490804408e-01   9.5652326703000867e-01   3.9855689895005841e-01   1.8471494699259825e-02   9.9967470104932765e-01   7.0759406230445146e-02   9.9999999999999978e-01   9.9999999999999989e-01   1.0000000000000000e-04   9.9999999999999991e-05   1.0000000000000003e-04   5.9071524861028499e-02   6.0727371607508851e-01   9.5206854920566708e-01   1.0000000000000000e+00   9.7087618099623907e-01   2.0634225479097990e-01   2.4457447749102637e-01   2.5337533328511882e-04   1.0615699303900189e-01   8.3344822296805454e-01   9.2569070998384295e-02   9.9999999999999964e-05   1.0000000000000000e-04   1.0000000000000006e-04   3.2925392205718523e-02   2.7044508836001629e-01   4.4113583936166056e-01   8.2219845698767624e-01   7.4220494152492289e-01   9.6730539360535639e-01   8.6911550574163177e-01   9.9999999999999978e-05   1.0000000000000003e-04   1.8960311861549362e-01   1.0000000000000002e-04   1.0000000000000003e-04   9.9999999999999978e-01   1.0000000000000002e+00   1.0000000000000000e-04   1.0000000000000003e-04   3.3594243727080658e-04   3.9635987586527727e-04   1.0000000000000000e-04   1.0000000000000005e-04   1.0000000000000002e-04   9.9999999999999991e-05   9.9999999999999991e-05   1.0000000000000002e-04   2.7277627589524829e-04   3.4240716503083017e-02   1.0000000000000005e-04   1.0000000000000002e-04   1.0000000000000003e-04   1.0000000000000000e-04   9.9999999999999978e-01   1.0000000000000000e+00   4.1695205769749599e-01   9.6789543530380640e-01   9.9999999999999989e-01   1.0000000000000000e+00   1.0000000000000002e-04   1.0000000000000003e-04   8.0547563084276319e-01   9.9999999999999978e-01   9.0335689275885045e-01   1.6613476218761575e-01   8.5171801589297680e-01   9.5235494401139842e-01   2.7648585990378860e-01   3.2614976328337003e-01   8.9899716509964667e-01   7.3899158970561463e-01   1.0000000000000000e-04   1.0000000000000003e-04   1.0000000000000002e-04   1.0000000000000000e-04   8.9078885654937745e-01   2.6019143976989156e-01   4.7022134075318983e-01   8.3942766109183353e-01   2.2302364597660018e-01   7.3380814792367488e-01   1.3155127996239874e-02   2.9654292085595909e-03   2.1052920491720133e-02   9.9999999999999978e-05   9.9999999999999991e-05   1.0000000000000006e-04   1.0000000000000000e-04   9.9999999999999991e-05   9.9999999999999978e-05   1.0000000000000002e-04   9.7781247541165073e-01   6.6766549601825464e-01   8.3967674524224500e-01   6.5411086447068389e-01   2.7298975664779659e-03   2.5073265842619191e-01   6.5847488686037250e-02   2.8536557450733158e-01   7.8392976184702012e-01   1.0000000000000002e-04   3.0781609648175395e-01   3.1425130186232095e-02   9.9999999999999978e-05   9.9999999999999978e-05   1.0000000000000000e-04   2.2024168194499223e-02   8.2058268088204857e-03   1.1234040855280386e-03   3.6509691471122638e-02   1.0000000000000003e-04   1.0000000000000005e-04   9.9999999999999964e-05   3.4224248500748056e-01   5.9420859453697672e-01   8.3109083149954177e-01   8.4975318405032174e-01   9.9999999999999978e-05   9.9999999999999933e-01   7.5813447255425215e-01   1.0000000000000003e-04   1.0000000000000003e-04   1.0000000000000003e-04   1.0000000000000002e-04   3.7979183513448772e-01   2.1446702327813308e-01   9.9448408822071732e-01   9.0456114426632939e-01   9.7166567948982374e-01   1.0000000000000000e-04   1.00000000