<?xml version="1.0"?>
<VTKFile type="UnstructuredGrid"  version="0.1"  >
<UnstructuredGrid>
<Piece  NumberOfPoints="572" NumberOfCells="1042">
<Points>
<DataArray  type="Float64"  NumberOfComponents="3"  format="ascii">0 0 0  20 0 0  20 10 0  10 10 0  10 30 0  0 30 0  0.9999999999991025 0 0  1.999999999998379 0 0  2.99999999999657 0 0  3.999999999993654 0 0  4.999999999990736 0 0  5.99999999998782 0 0  6.999999999984902 0 0  7.999999999982053 0 0  8.999999999983299 0 0  9.999999999984821 0 0  10.99999999998634 0 0  11.99999999998786 0 0  12.99999999998939 0 0  13.99999999999091 0 0  14.99999999999243 0 0  15.99999999999396 0 0  16.99999999999547 0 0  17.99999999999698 0 0  18.99999999999849 0 0  19 10 0  18 10 0  16.99999999999999 10 0  15.99999999999999 10 0  14.99999999999999 10 0  13.99999999999999 10 0  12.99999999999999 10 0  11.99999999999998 10 0  10.99999999999999 10 0  8.999999999999998 30 0  7.999999999999996 30 0  6.999999999999994 30 0  5.999999999999991 30 0  4.999999999999989 30 0  3.999999999999988 30 0  2.999999999999985 30 0  1.999999999999982 30 0  0.9999999999999911 30 0  20 0.9999999999991893 0  20 1.999999999996827 0  20 2.99999999999391 0  20 3.999999999991027 0  20 4.999999999992411 0  20 5.999999999993932 0  20 6.999999999995455 0  20 7.999999999996978 0  20 8.99999999999849 0  10 11 0  10 12 0  10 13.00000000000001 0  10 14.00000000000001 0  10 15.00000000000001 0  10 16.00000000000001 0  10 17.00000000000001 0  10 18.00000000000002 0  10 19.00000000000002 0  10 20.00000000000002 0  10 21.00000000000002 0  10 22.00000000000002 0  10 23.00000000000003 0  10 24.00000000000003 0  10 25.00000000000003 0  10 26.00000000000004 0  10 27.00000000000002 0  10 28.00000000000002 0  10 29.00000000000001 0  0 28.99999999999748 0  0 27.99999999999496 0  0 26.99999999999244 0  0 25.99999999998992 0  0 24.9999999999874 0  0 23.99999999998488 0  0 22.99999999998236 0  0 21.99999999998003 0  0 20.99999999998815 0  0 19.99999999999747 0  0 19.00000000000679 0  0 18.00000000001612 0  0 17.00000000002544 0  0 16.00000000003426 0  0 15.0000000000375 0  0 14.00000000003532 0  0 13.0000000000328 0  0 12.00000000003028 0  0 11.00000000002775 0  0 10.00000000002523 0  0 9.000000000022702 0  0 8.000000000020183 0  0 7.000000000017657 0  0 6.000000000015138 0  0 5.000000000012612 0  0 4.00000000001009 0  0 3.000000000007567 0  0 2.000000000005041 0  0 1.000000000002519 0  5.728723785672998 5.901044008441581 0  5.000000000000125 19.50000000000215 0  14.65187630684699 4.923836548436146 0  5.115131119299987 11.56055620459385 0  5.0772937334627 24.59453985367547 0  10.19697948290734 4.492215407725595 0  4.075000000004653 15.50000000000093 0  3.428170293536548 8.218340082790768 0  3.420374707260815 3.420374707259273 0  6.955488077926731 8.770879211432478 0  6.827346208875115 16.93998219419298 0  3.109371561382727 22.004037517888 0  6.838257250874669 22.00633787231301 0  12.00865070105494 6.90708947314323 0  7.284386422837769 3.095559720135088 0  16.9258763006164 3.064661124438587 0  16.91666666666667 6.916666666666801 0  6.903662258566122 26.94433745032824 0  3.158298613461072 26.8789190137744 0  6.87766603741498 13.91839112280381 0  12.48523647254302 3.038772092607918 0  9.258770068994496 7.13694746011935 0  2.787010495468762 17.90714753980959 0  2.751066151781425 13.08688717260078 0  2.707102168453105 6.020715171824659 0  7.482096385019108 19.50234689293588 0  7.708956811090623 24.55880042251547 0  2.477844614671574 24.4732847134075 0  14.55392028141555 7.438671511305447 0  7.507948635893258 11.53313806023061 0  2.585663558619443 10.46975745685681 0  14.7172552324763 2.196214785183599 0  9.418929996155162 2.255369814834569 0  8.006141836205714 5.264721775401034 0  5.14214276745034 2.092625148792938 0  2.204289539325238 20.05693289168105 0  5.085466093230393 27.8690980125407 0  17.83163061561504 5.000784325816564 0  4.966226517431003 13.61070807635473 0  4.816567271379334 17.40350280294533 0  1.977659120746672 15.50169417205828 0  11.84653008405478 4.814427323791489 0  1.881188915912106 1.88294678200423 0  5.33734629215244 7.76384942288846 0  7.977546976433716 15.66333677529443 0  5.067824608665951 21.53843038705166 0  4.917512577082245 9.512982528379281 0  5.249601923638718 3.970224504981767 0  7.297907874342201 7.012581959027954 0  1.742369939641665 7.558039494762744 0  10.73381768490442 8.162433868455938 0  5.731094439144446 15.35734910888542 0  1.765423574135426 4.410450760347189 0  18.25377441592651 1.743540885165585 0  18.35124066758773 8.189406712658872 0  8.191832323317094 28.35435673835375 0  1.808167676682835 28.35435673835346 0  11.01917260439546 1.646913221188133 0  8.645576108611515 8.895933848412744 0  8.228053360555254 18.02173579415438 0  16.1813063063063 4.638023893458935 0  8.290968394549473 21.05231623809841 0  4.389998224341592 6.47697500117852 0  5.223669788702977 26.2909469755224 0  8.413762828992954 22.85069889350155 0  1.783575224194424 23.02042073833663 0  10.68884158834209 6.132894392981086 0  12.88691782207923 8.362421880057527 0  3.604359950503115 1.737274574679664 0  16.07650897743723 8.248540597384695 0  8.305959580048773 26.03194555877241 0  1.648502087586519 26.03826699369857 0  8.314615401764165 12.92947665996754 0  1.63233251141317 9.203510147398498 0  4.383844714876546 22.96009915284429 0  16.26486472239312 1.625485651549861 0  6.241812303137587 18.49410603655722 0  7.934369978171107 1.615323593713008 0  6.241422982615788 23.49538328344142 0  18.47072072072156 3.499999999992469 0  18.45625498987756 6.516218900425116 0  6.306572549034007 10.37228712999795 0  6.499903633577832 28.46099876253944 0  3.582334315936546 28.40368497771941 0  13.44799070459209 6.325276833644044 0  3.729915862762097 20.47569480152416 0  6.297316440473368 20.52074552438128 0  1.671075605775147 12.00084710004787 0  15.43611770509146 6.143644673669112 0  3.802508292813616 25.43409793827198 0  6.314837205408595 12.42328048050021 0  13.34949502627596 1.461659322479336 0  3.869349746650045 4.945488504646804 0  8.676661482538726 3.708996087754382 0  1.504646189839923 21.39381072713453 0  13.76914208777227 3.685576646501595 0  1.510368502139926 14.00313965845728 0  1.546411780267381 16.98976708031307 0  6.667404230643647 4.518812433558244 0  3.442309747651904 11.70241297647329 0  11.06083335096368 3.289056825466172 0  8.516465921785908 10.30209699797901 0  1.429773957570218 18.67642476432301 0  6.498922647302535 1.385598544927216 0  3.040912576673787 14.49760433624178 0  3.071701770080516 16.49533035168086 0  3.585006029353561 19.04233564735886 0  6.626747354922605 25.55307851203186 0  15.33111255367517 3.609650493530291 0  3.397578310945209 9.992581699924022 0  1.345757257437069 5.429238167510722 0  8.61022138032167 14.17593451859099 0  8.589111146523635 16.47637338705555 0  8.996284959636366 5.738872007339833 0  3.155034487354471 23.33743529364603 0  3.085272399531972 7.111645379717492 0  1.298182076393107 3.009623479658417 0  14.48992871950731 9.013424077321755 0  8.851151945756786 24.50124676116767 0  0.9867687039345936 24.48892545532147 0  9.091310056874482 19.49723865911928 0  8.790906473370431 11.58178129525339 0  0.9526838269651453 10.50294741462647 0  6.125369243560925 3.160981085778384 0  11.79892227535152 8.604866480741309 0  13.30339733366243 4.668968057177123 0  4.181414827513885 26.84333645388323 0  16.99087498967014 5.841133105262167 0  17.06284597466919 8.766336751614272 0  8.769323983860358 27.06304803808523 0  1.228700349214151 27.063322291647 0  10.02257055931584 1.30287149740112 0  12.19892686867241 1.198856112718229 0  14.50042240581559 1.105026116840621 0  5.029384407871595 16.23959772985412 0  5.779761429178221 22.42338653030867 0  4.206732473597995 13.08873829675385 0  1.168670502245071 1.168670502244495 0  4.657175662728616 1.135741880898768 0  3.787603610488796 24.40523062264347 0  7.271401523398264 5.90992026538801 0  7.432773057594875 9.962860504391386 0  5.744193563144459 8.852349589896429 0  4.545726875946353 3.115525958933861 0  6.896526709261583 15.7827459888154 0  4.741760341020806 14.73416900407251 0  7.836340189364776 8.124911730675329 0  9.973024883728558 3.177797734549324 0  4.140870376641328 10.9120776610463 0  5.438005755919328 28.93014403549127 0  18.93579142551956 4.517904078457177 0  17.33202286009337 1.0163708881882 0  6.192671995979826 7.009965898019317 0  1.085553583062706 20.39504853692019 0  1.036248266760263 6.447250533556415 0  8.129203165270873 6.287301528509486 0  2.666682793231872 1.007141932630511 0  9.735929091927115 8.83293208174727 0  4.218310719822778 7.525415897440693 0  4.957481009643133 5.185163252895461 0  8.877539755922905 21.99220648364226 0  7.706130771953868 4.175600096170152 0  1.118712900894058 12.99721527880106 0  8.933310924696348 1.115165378723522 0  3.724943955277921 17.37807153585464 0  11.71164891042608 5.918058630266143 0  9.009592200097288 4.73370707167167 0  2.833128220416689 4.906494392192996 0  2.50408016343831 21.13400217199654 0  5.879266386526062 14.11006790527021 0  15.89940219768073 2.660917392226534 0  6.095077209220761 24.5382602980506 0  2.422556173228342 2.91820278935596 0  10.98935401192024 7.140067043054689 0  8.327058211642584 2.660312830293774 0  2.525671157353203 18.90302107479339 0  17.16550170860516 4.152287032159843 0  5.83718514475721 27.16511610441461 0  19.00433832331643 7.456594428609664 0  19.00433832331901 2.543405571381815 0  7.457383759478383 29.00501628964853 0  2.542616240521407 29.00501628964844 0  4.581078425510174 18.49247076991496 0  7.28874991412525 22.95808932275072 0  13.02537989146384 7.287975064460607 0  4.598726069424561 8.48723100218834 0  5.205817806280116 12.56903683045773 0  1.036160016146225 8.416050757944436 0  5.907426261417234 17.46378184344691 0  7.294130905386816 18.47733141855743 0  2.293649656037611 8.544414311558722 0  15.45841911549921 7.164660318055792 0  1.154365552303646 15.00338769114511 0  10.94101910543886 5.140938192291186 0  2.744805587037872 25.95457794695726 0  7.345323229341848 
[...]
<CellData  Scalars="density"> 
<DataArray  type="Float64"  Name="density"  format="ascii">6.9477422572909564e-01   1.0000000000000002e-04   9.3501814510270909e-01   6.6301594898002558e-01   1.0000000000000000e-04   1.0000000000000003e-04   1.6636001276104886e-01   9.9999999999999991e-05   9.9999999999999978e-05   8.9520659182085260e-01   1.0000000000000000e+00   9.5169116123740261e-01   1.0000000000000000e+00   7.8497377169539739e-01   5.7102541206773694e-01   2.6607234237849448e-01   9.9999999999999991e-05   1.0000000000000000e-04   8.5177340302088500e-01   2.8397729629778878e-01   3.8271755707022981e-01   1.0000000000000000e-04   1.4210003325764790e-04   4.2957317332161680e-03   9.8015980601807662e-01   2.5711543504542418e-02   2.9651177861488076e-01   4.0289529980173994e-01   8.3554640865120622e-01   9.8941649905746620e-01   9.1492647530541571e-01   6.4210876687987339e-01   6.1439154051077005e-01   6.9300141115206215e-02   2.0454551140423527e-01   1.0000000000000002e+00   9.7634415636263427e-01   2.6307901158193592e-01   8.8630253114097690e-01   8.9703273629791025e-01   9.9653317443287381e-01   1.0000000000000000e-04   7.0065734340523100e-01   7.0940898222665527e-01   9.0448149936764555e-01   3.6007256917936625e-01   9.2478192674359283e-01   9.3953565771780756e-01   9.9999999999999978e-05   9.9999999999999991e-05   5.9106231465135224e-02   2.3194177071838160e-02   9.0429108398199676e-01   1.0000000000000002e-04   9.9999999999999978e-05   5.9419448655267837e-01   7.5185193371609227e-01   6.8346860599624071e-01   7.2474650675808860e-01   7.9790536440470783e-01   6.5701683775054487e-01   9.9999999999999991e-05   1.0000000000000003e-04   7.6162891018278811e-01   1.0000000000000002e-04   9.9999999999999991e-05   9.9999999999999991e-05   9.9999999999999991e-05   7.0066056947005495e-01   1.0000000000000002e-04   8.8915076108657465e-01   8.7326415744936836e-01   3.8516522602605030e-01   3.8555009581079158e-02   1.0000000000000000e-04   1.3816856232761190e-01   9.2084734269964996e-01   9.5198282606030904e-01   6.9992391115062197e-02   8.4810263850868883e-01   1.0000000000000000e+00   1.0000000000000002e+00   2.1475118996885847e-01   1.0000000000000003e-04   3.1967636072379624e-01   1.0000000000000002e-04   9.9999999999999991e-05   9.1427803747168934e-01   6.8596880781268466e-01   8.4984591984827706e-01   9.9999999999999989e-01   1.0000000000000002e-04   5.3772232064032055e-01   9.2990407889210602e-01   2.8052661530381206e-03   4.3443432408442569e-02   9.9254274515317813e-03   1.0000000000000002e-04   1.0000000000000000e-04   2.7954253043259759e-02   9.9999999999999991e-05   8.2301480790938675e-01   1.7167118981420044e-02   1.0000000000000002e-04   9.9999999999999964e-05   3.8218146427414140e-01   9.6725161565400852e-01   1.0000000000000002e+00   4.6137602152141483e-01   9.5059068242064915e-01   9.9999999999999989e-01   9.1995651672351653e-01   7.9644584147863032e-02   2.9187496199067708e-01   8.8292168171786478e-02   9.9918513587556235e-01   9.3114621683355592e-01   1.0000000000000002e-04   7.1952244078264754e-02   6.6898297569405063e-01   7.0222758019403630e-01   1.3816760994194710e-01   7.6311070741360643e-01   2.9313204834687908e-02   3.7042445844272620e-01   9.6291124639841952e-01   7.8969558217005920e-01   9.8135063627309393e-01   8.6462429889560777e-01   6.9871758966907047e-02   9.2083186038767029e-01   6.5557522939688584e-01   1.0000000000000002e-04   7.2017500339573248e-01   9.9999999999999989e-01   3.7279741901374863e-01   1.0000000000000002e-04   9.7244814636248034e-01   1.0000000000000000e-04   9.9999999999999991e-05   6.0896037783957424e-01   1.7737357290604336e-01   9.9999999999999978e-05   1.0000000000000000e-04   9.7025295688384217e-01   8.9573160203662505e-01   4.8357529201733723e-02   9.9999999999999978e-05   9.9999999999999991e-05   6.0064990511087413e-01   3.6122637368219530e-02   9.9999999999999978e-05   3.6440300432476247e-01   8.7205646038701190e-01   3.0563752818758860e-01   6.6511580681762450e-01   3.3310450746773362e-01   1.0000000000000000e-04   9.9999999999999978e-05   6.4963504540870975e-01   4.4560329617567934e-01   9.9999999999999991e-05   9.7055780016739546e-01   5.2707154067840385e-02   1.4709085776993042e-01   1.0000000000000002e-04   1.0000000000000000e-04   1.0000000000000002e-04   1.7817664931000912e-02   9.9999999999999978e-05   1.4433565043870183e-01   3.0858463765425269e-03   6.8980066463297596e-01   6.3792232800960391e-01   9.9999999999999991e-05   8.3991742740550557e-01   8.3243414460865958e-02   8.3302032169219209e-01   1.0000000000000000e-04   1.2949591055770532e-01   6.9271601456556664e-01   1.7292250954027202e-01   1.5838858040403728e-01   5.4837026846871539e-01   9.8601013152909611e-01   7.5346916642714068e-01   7.0864142662577678e-01   3.8673774347312539e-01   7.4085978941031816e-01   1.0000000000000000e+00   8.9218760756111803e-01   3.4701598912875786e-01   3.1691502536812627e-01   1.0000000000000000e-04   9.9999999999999991e-05   9.9999999999999978e-05   8.5857779216216212e-01   8.1818692432634077e-01   7.2623326780015296e-01   8.4707291965696352e-01   7.8502749130266905e-02   1.3070592961980038e-01   7.4499184155203901e-02   5.3857936800224337e-01   3.5986592495576375e-01   1.7200879607674152e-01   1.2847257269658746e-02   2.0899641030882993e-01   1.3768887545795751e-02   1.7728114666226312e-03   1.3299229231576287e-01   1.0000000000000002e-04   1.8460777561628613e-02   3.6207413233561137e-01   4.6538448244041762e-02   1.0000000000000000e-04   7.4542252877610427e-01   7.5139105455371369e-01   9.3127847059204405e-01   1.0000000000000005e-04   1.0359440736336367e-01   5.3017233705531394e-02   1.0000000000000000e-04   1.0000000000000000e-04   1.3112573322380397e-01   8.6960278033828864e-01   9.9999999999999991e-05   1.0000000000000003e-04   1.0000000000000000e-04   1.0000000000000003e-04   1.4151147090364485e-01   5.4952481804585604e-02   1.0000000000000003e-04   4.0137137852283078e-01   3.2773346964946892e-01   7.3747472333079112e-01   5.0564334965075097e-01   9.0746319176641044e-01   6.2615078142777747e-01   3.5183779896961898e-01   2.7664333173244599e-01   1.0000000000000000e+00   9.9999999999999991e-05   1.0000000000000000e+00   6.7825788812035703e-01   1.6068611155502557e-01   3.5946068789953989e-02   4.7519381019729862e-01   6.6730242924229000e-01   9.9999999999999978e-05   7.5272358875323309e-01   9.6227875220520634e-02   9.9999999999999964e-05   1.0000000000000000e-04   1.4226090737196559e-01   3.8083606550360055e-01   8.0301131938308934e-01   8.8205880677242920e-01   8.4429881454690603e-01   2.2705682395349824e-01   4.1548409826085597e-02   9.9999999999999978e-05   9.9999999999999991e-05   1.0000000000000002e-04   7.0613272006406125e-01   8.8834310151078155e-01   9.5321833305098835e-01   5.9468311953056385e-01   6.2382689267615499e-01   3.1700622525945488e-01   9.5282076899167054e-02   6.9112523578298313e-01   4.8115001037986094e-01   9.3671416046759201e-02   1.2589026012088608e-01   1.9169396458379225e-02   1.0000000000000000e-04   2.1019609719192985e-02   2.1349485331892076e-01   9.9999999999999978e-05   1.0000000000000003e-04   6.7657816625328060e-01   8.5474448603335074e-01   6.4786161134477538e-01   9.9999999999999991e-05   3.3073101855623593e-01   7.7329353549739621e-01   6.3066525917418614e-01   4.7557914310092220e-01   2.4597772536154663e-01   1.0000000000000000e-04   1.0000000000000000e-04   5.1714881055784818e-03   9.9999999999999989e-01   1.2556536642445421e-01   9.9999999999999991e-05   1.0600161374306288e-01   8.3097480466763407e-01   8.2562363594398847e-01   1.0000000000000000e-04   3.7074081533309899e-01   9.9999999999999978e-05   8.7670428154138169e-01   3.7280923329689748e-02   3.9163880388826183e-01   1.0000000000000000e-04   9.9999999999999991e-05   8.3918794575570199e-01   9.9999999999999991e-05   8.6066366704790809e-01   1.6475984500213348e-01   7.5746927113248897e-03   1.1395085041717523e-03   5.1913806450694759e-02   5.1391500848840359e-02   7.2339385071002631e-04   4.6267596997971117e-01   3.6955268155471638e-01   2.7464290337864966e-01   9.2713696754349861e-01   9.6966592185303546e-01   3.8192020648214052e-02   1.3018088984123602e-01   3.8741202250728302e-01   1.5150185975892544e-02   7.3726874364190587e-01   9.2683722084218212e-01   6.6540062162083011e-02   3.2007118288194025e-01   4.0952666565916723e-01   7.9739775023415960e-01   3.9405782260192912e-01   1.8523990536565360e-01   8.9151945891309825e-01   1.0000000000000000e-04   6.2542872917839565e-01   9.2494227025113118e-01   6.3183794930329407e-01   8.3688123005553938e-01   2.7992999621771886e-01   1.0000000000000000e-04   1.0000000000000003e-04   9.9999999999999978e-01   9.9999999999999978e-05   1.0000000000000005e-04   9.9999999999999991e-05   9.3637271412107023e-02   3.0798886642601953e-01   1.2079278904887185e-03   9.9999999999999978e-05   9.9999999999999978e-01   1.0000000000000000e-04   9.9999999999999978e-05   3.1104050716693782e-01   1.5240481186918209e-01   8.8631784674919722e-01   2.3255968350699881e-02   7.6206030247934109e-01   1.0000000000000003e-04   9.7541672962675088e-02   1.5103903511539521e-01   9.9999999999999978e-01   7.5816555705735678e-01   9.9999999999999978e-05   1.0000000000000000e-04   2.8525008801686885e-02   3.9871169801674294e-01   1.0000000000000000e+00   9.4480344183439868e-01   4.6365157968008436e-01   6.0014209401989271e-01   1.0000000000000002e+00   9.1276766477589655e-01   2.7973041504575080e-01   7.8504448238349167e-01   8.8684647987943532e-01   1.3266507191825272e-01   1.9119054587932595e-02   7.0578657759525365e-01   7.4837056840182758e-01   9.9895029138306479e-01   3.9191406973796389e-01   1.0000000000000000e-04   9.9999999999999989e-01   9.9999999999999991e-05   3.8301892902998252e-01   6.4240666399594260e-01   1.7963572608309555e-01   8.0039251723056026e-01   1.4626181938009097e-01   1.0000000000000000e-04   9.8291039968515681e-01   8.0655590334938562e-02   8.9942252062750816e-01   9.9999999999999991e-05   9.9999999999999991e-05   2.9387650862986871e-02   1.0000000000000000e-04   1.0000000000000002e-04   3.4946784424242494e-01   1.1933623558236023e-01   3.2012603297794634e-01   1.1330564681373889e-02   3.7315062049692943e-01   9.9999999999999978e-01   3.3060135207634411e-01   6.5546267683237691e-01   2.3524122896377164e-01   1.0000000000000002e-04   7.0242549536943866e-01   9.9999999999999991e-05   6.7979335727885770e-01   9.9999999999999991e-05   1.0000000000000002e-04   8.1611480781201573e-01   8.8075519812751712e-01   7.9738767676559041e-01   6.3294830289176984e-01   1.0000000000000002e+00   7.3152799993967704e-02   7.5270168948719696e-01   1.0000000000000002e+00   8.5400797082369972e-01   9.9999999999999991e-05   3.1448225402985081e-01   8.0239404627410660e-01   1.0000000000000002e-04   1.6918434786181297e-01   1.0000000000000000e+00   2.3633389601832808e-01   7.8674438252491108e-01   1.0000000000000000e-04   1.7668685518456395e-01   2.8322301644273834e-01   4.2741515355011320e-02   1.0000000000000002e-04   9.9999999999999991e-05   1.0000000000000002e+00   1.0000000000000000e+00   9.9359217477074280e-01   9.9999999999999991e-05   1.0124721642318406e-01   9.9999999999999991e-05   3.6158122830086126e-01   1.0000000000000003e-04   7.9165462333107861e-01   2.7772317217131315e-01   9.4587671219244596e-01   6.5038896096483367e-01   9.6802113513422050e-01   9.3922965952161463e-01   2.0567612087157894e-01   9.9999999999999978e-01   9.9999999999999978e-01   8.9281768822666063e-01   1.0000000000000005e-04   8.8157485952300951e-01   6.8653089329996836e-02   8.6794817854194217e-01   7.2829963249645422e-03   9.9999999999999956e-01   1.7010796470456221e-02   1.0000000000000002e-04   1.0000000000000000e-04   4.7011178146270194e-01   1.0000000000000000e+00   9.4923536186763136e-01   9.9999999999999991e-05   8.1914415715991651e-01   6.2739863956911682e-02   1.0000000000000000e-04   5.7403444650948349e-02   9.9797979576474871e-01   1.0000000000000002e-04   7.2800995928277568e-01   1.0000000000000002e-04   3.8892771036051416e-01   6.7148306188043017e-01   1.0000000000000000e-04   2.6093017328631424e-01   2.6959902553229054e-01   1.0000000000000002e-04   9.9999999999999991e-05   1.0000000000000002e+00   6.1579421569447090e-01   1.0000000000000000e-04   8.2934071829496681e-01   1.0000000000000002e-04   9.9999999999999978e-01   1.0000000000000002e-04   8.2860625590464332e-01   6.1441597473639598e-01   9.8010476328886731e-01   6.9080605569473508e-01   9.0390908923617452e-01   3.1682501423777054e-01   7.6743861766289001e-02   2.2418659947769881e-01   1.0000000000000002e+00   9.9398425740243024e-01   1.7759725315110048e-01   3.6239970879315214e-02   1.0000000000000003e-04   9.9504682947702727e-01   9.9454983915482653e-01   9.9999999999999991e-05   5.9309354070466551e-03   9.9999999999999991e-05   9.9999999999999991e-05   1.0000000000000003e-04   8.1083057341735087e-01   1.0000000000000003e-04   8.2006910640633968e-01   3.3977270196128440e-01   9.9999999999999991e-05   8.6106457828190797e-01   3.6435979088286419e-01   2.0511348474693611e-01   5.9457819787261013e-01   1.0000000000000000e-04   1.4799596405384510e-01   8.9353770809779198e-01   3.2922509020811275e-01   5.0424545025842549e-01   1.0000000000000000e-04   6.8538357904457414e-01   9.9451730739114752e-01   2.6085731514956295e-01   1.0000000000000000e+00   1.0000000000000003e-04   8.3659364124517532e-01   5.0155958471751261e-01   4.6956225486615449e-01   8.0382287808999675e-01   6.7435304175103028e-01   3.3121399633203985e-01   9.9999999999999989e-01   8.1712738633944693e-01   9.1450589540625205e-01   1.3998596139055226e-02   1.0000000000000002e-04   8.7371215277343039e-01   1.4345311209383080e-01   4.8262357663898714e-01   9.9999999999999991e-05   1.0000000000000005e-04   1.0000000000000005e-04   3.0354398819413632e-02   9.9999999999999991e-05   9.9999999999999978e-05   9.7577168869311404e-01   9.6578180236011335e-01   1.0000000000000000e-04   7.0145986390156712e-01   3.9326899908087665e-01   5.3053693775378175e-01   9.9999999999999991e-05   9.9999999999999991e-05   9.7577716436538331e-01   9.3859700766023724e-01   1.0000000000000000e-04   1.0000000000000002e-04   1.0000000000000003e-04   3.4415452701865656e-01   1.4343486623876719e-01   9.9999999999999978e-01   3.8127270133589553e-01   1.9595733531791587e-01   1.0000000000000000e-04   7.1075819007677332e-01   1.0000000000000005e-04   6.9054474855327519e-01   1.4587704428719356e-01   2.8012405531465312e-01   1.7960505298811205e-01   1.8143369941107282e-02   8.4655354496794122e-01   9.7437198366552435e-01   6.8188591594760173e-01   4.6797032794758037e-01   4.5147853132053606e-01   9.9999999999999991e-05   4.2863752373789366e-01   6.1895408885384628e-01   4.0509180114058307e-01   1.6650617775419335e-01   1.0000000000000000e-04   1.0000000000000002e-04   9.9999999999999978e-01   4.2218802187766769e-01   2.9313844132666750e-01   1.0000000000000002e+00   7.4760215765483740e-01   9.9999999999999978e-01   6.7170421346690490e-01   8.3409487512501002e-01   2.2640945512995306e-01   5.9149648663008703e-01   6.8537134024719926e-01   2.7929036167531790e-01   6.9526530087777039e-01   6.3465813381209601e-01   8.3240129803623053e-01   8.4979871033177878e-01   4.7054959325614161e-02   8.6697580723187695e-01   4.7804520002179669e-02   9.1162093213523310e-01   9.9999999999999964e-05   1.0000000000000000e-04   8.9188990586370553e-01   9.9999999999999978e-05   6.7556457975012507e-01   8.2972734142813998e-01   6.7929315657908684e-01   1.7693573051579801e-03   6.1295611660572591e-01   9.6974094145174261e-01   5.5331245218271485e-01   2.6875210953109252e-01   4.8587999696331219e-01   8.0559035961212921e-01   1.0000000000000000e-04   7.9720975357294244e-01   1.0000000000000000e-04   9.9999999999999991e-05   9.9477714982062659e-01   1.0000000000000002e+00   8.0195115102324177e-01   7.6151925436405776e-01   1.4586595924712092e-01   2.8971893124689541e-01   3.8252944095087243e-01   3.5059694997484570e-02   1.0000000000000003e-04   8.7429276976831416e-01   3.5227803891788328e-01   4.3397441493079414e-01   5.8725118858815717e-01   1.0000000000000000e-04   9.9999999999999991e-05   7.5810585227869232e-01   5.0811667122362980e-01   8.5889544192606260e-01   6.8179289997311021e-01   3.0268157169401604e-02   1.0000000000000000e-04   8.8093144519157229e-01   1.0000000000000002e-04   9.1922698074674580e-01   1.0000000000000002e-04   9.0727827485074619e-01   2.1124920642442002e-01   7.0472060602808229e-01   4.7460399088871552e-01   9.8800902940931656e-01   1.0000000000000002e-04   5.4951389827819619e-01   1.9186168248693566e-02   6.7954680871389040e-04   9.8022739396979763e-01   6.7692613385908823e-03   5.7751496404566360e-01   6.1393740422702725e-01   6.7830685343226382e-01   1.2160947418201655e-01   2.2414919574361200e-01   6.1311008270483880e-01   8.0635938141720831e-01   3.4743418836052303e-01   1.5765487153084665e-01   1.0000000000000002e-04   9.1402556934302503e-01   7.9621279509152043e-01   1.4878264336023730e-01   1.0000000000000003e-04   1.0000000000000000e-04   1.0000000000000000e-04   1.0000000000000003e-04   2.9729615604994271e-02   1.0000000000000000e+00   9.4939344081329188e-02   1.5268673579786562e-02   1.9917489668072969e-01   1.9596537640384679e-01   1.2480008704338272e-01   9.1654106547351044e-01   9.9382882531602756e-01   4.2892720955296759e-01   8.4375096309188746e-01   1.0000000000000003e-04   1.8776497843812703e-03   4.5498504474631957e-01   1.0000000000000000e-04   1.0000000000000003e-04   8.2857426611524498e-01   9.9999999999999991e-05   2.9955878482987025e-01   1.4623289248311672e-01   1.0000000000000000e+00   9.7216481555359935e-01   7.1560665544971602e-01   9.0290631716356018e-01   1.0000000000000000e-04   1.4697093680359071e-02   1.0000000000000000e+00   3.8126373032546013e-01   2.1434617094660835e-01   1.0000000000000002e-04   1.0000000000000000e-04   8.5608872371890532e-01   2.8801031741398431e-01   1.0564031874401245e-01   7.5741920787542058e-03   2.8660971225869747e-01   9.9999999999999991e-05   9.9999999999999991e-05   1.0000000000000000e-04   9.9999999999999991e-05   2.2061614537435179e-01   8.6159605728992994e-01   1.0000000000000000e-04   1.0000000000000000e-04   9.9999999999999991e-05   1.0000000000000002e-04   1.0000000000000000e-04   7.6835142830985349e-03   2.0533743574771696e-01   3.9219843179977976e-01   9.9999999999999989e-01   9.9999999999999991e-05   6.4938052815165581e-01   9.0390427000463192e-01   2.2895801604310736e-03   9.9999999999999991e-05   9.9999999999999978e-05   1.0000000000000000e+00   1.0172872899802050e-01   6.8306703323485474e-01   9.8854413246242945e-01   1.0000000000000003e-04   1.0000000000000002e-04   7.0477809471729536e-01   8.2614236939592633e-01   5.5083059084439012e-01   6.5201667913740213e-01   4.5244004173048558e-01   4.3633112866836765e-01   4.7399759029421668e-01   9.7656623134656628e-01   9.9999999999999951e-05   6.8064728801403329e-01   8.5242950184925326e-01   7.1585329968167355e-01   9.9999999999999978e-05   3.5167315211063893e-02   9.9999999999999978e-05   4.7752897584066020e-02   8.3862508408745695e-01   9.9999999999999978e-05   8.9234740512301036e-01   8.5997078960682316e-01   7.1541177542482104e-01   6.4628286949393787e-01   3.9804889942461247e-01   9.9999999999999989e-01   1.0000000000000002e-04   1.0000000000000000e-04   1.0000000000000002e-04   9.9999999999999991e-05   9.5786980905342978e-01   2.0326102856593822e-01   9.9999999999999978e-05   9.9999999999999991e-05   1.9081760898954005e-02   9.9999999999999991e-05   2.8457981661584092e-01   1.0000000000000002e-04   1.7686976650278408e-02   1.3676994681714488e-01   1.0000000000000002e-04   1.0000000000000000e-04   1.0000000000000003e-04   9.6529122102332421e-01   2.9308849956929584e-01   1.5245159421596136e-01   8.8288364723177060e-01   6.0701404768396527e-01   3.6792528189210549e-01   1.0000000000000000e+00   1.0000000000000002e-04   1.0000000000000002e-04   6.0946106794387478e-01   7.5914073210040656e-01   9.9999999999999991e-05   9.9999999999999991e-05   1.00000000