<?xml version="1.0"?>
<VTKFile type="UnstructuredGrid"  version="0.1"  >
<UnstructuredGrid>
<Piece  NumberOfPoints="3321" NumberOfCells="3200">
<Points>
<DataArray  type="Float64"  NumberOfComponents="3"  format="ascii">0 0 0  2 0 0  4 0 0  6 0 0  8 0 0  10 0 0  12 0 0  14 0 0  16 0 0  18 0 0  20 0 0  22 0 0  24 0 0  26 0 0  28 0 0  30 0 0  32 0 0  34 0 0  36 0 0  38 0 0  40 0 0  42 0 0  44 0 0  46 0 0  48 0 0  50 0 0  52 0 0  54 0 0  56 0 0  58 0 0  60 0 0  62 0 0  64 0 0  66 0 0  68 0 0  70 0 0  72 0 0  74 0 0  76 0 0  78 0 0  80 0 0  82 0 0  84 0 0  86 0 0  88 0 0  90 0 0  92 0 0  94 0 0  96 0 0  98 0 0  100 0 0  102 0 0  104 0 0  106 0 0  108 0 0  110 0 0  112 0 0  114 0 0  116 0 0  118 0 0  120 0 0  122 0 0  124 0 0  126 0 0  128 0 0  130 0 0  132 0 0  134 0 0  136 0 0  138 0 0  140 0 0  142 0 0  144 0 0  146 0 0  148 0 0  150 0 0  152 0 0  154 0 0  156 0 0  158 0 0  160 0 0  0 2 0  2 2 0  4 2 0  6 2 0  8 2 0  10 2 0  12 2 0  14 2 0  16 2 0  18 2 0  20 2 0  22 2 0  24 2 0  26 2 0  28 2 0  30 2 0  32 2 0  34 2 0  36 2 0  38 2 0  40 2 0  42 2 0  44 2 0  46 2 0  48 2 0  50 2 0  52 2 0  54 2 0  56 2 0  58 2 0  60 2 0  62 2 0  64 2 0  66 2 0  68 2 0  70 2 0  72 2 0  74 2 0  76 2 0  78 2 0  80 2 0  82 2 0  84 2 0  86 2 0  88 2 0  90 2 0  92 2 0  94 2 0  96 2 0  98 2 0  100 2 0  102 2 0  104 2 0  106 2 0  108 2 0  110 2 0  112 2 0  114 2 0  116 2 0  118 2 0  120 2 0  122 2 0  124 2 0  126 2 0  128 2 0  130 2 0  132 2 0  134 2 0  136 2 0  138 2 0  140 2 0  142 2 0  144 2 0  146 2 0  148 2 0  150 2 0  152 2 0  154 2 0  156 2 0  158 2 0  160 2 0  0 4 0  2 4 0  4 4 0  6 4 0  8 4 0  10 4 0  12 4 0  14 4 0  16 4 0  18 4 0  20 4 0  22 4 0  24 4 0  26 4 0  28 4 0  30 4 0  32 4 0  34 4 0  36 4 0  38 4 0  40 4 0  42 4 0  44 4 0  46 4 0  48 4 0  50 4 0  52 4 0  54 4 0  56 4 0  58 4 0  60 4 0  62 4 0  64 4 0  66 4 0  68 4 0  70 4 0  72 4 0  74 4 0  76 4 0  78 4 0  80 4 0  82 4 0  84 4 0  86 4 0  88 4 0  90 4 0  92 4 0  94 4 0  96 4 0  98 4 0  100 4 0  102 4 0  104 4 0  106 4 0  108 4 0  110 4 0  112 4 0  114 4 0  116 4 0  118 4 0  120 4 0  122 4 0  124 4 0  126 4 0  128 4 0  130 4 0  132 4 0  134 4 0  136 4 0  138 4 0  140 4 0  142 4 0  144 4 0  146 4 0  148 4 0  150 4 0  152 4 0  154 4 0  156 4 0  158 4 0  160 4 0  0 6 0  2 6 0  4 6 0  6 6 0  8 6 0  10 6 0  12 6 0  14 6 0  16 6 0  18 6 0  20 6 0  22 6 0  24 6 0  26 6 0  28 6 0  30 6 0  32 6 0  34 6 0  36 6 0  38 6 0  40 6 0  42 6 0  44 6 0  46 6 0  48 6 0  50 6 0  52 6 0  54 6 0  56 6 0  58 6 0  60 6 0  62 6 0  64 6 0  66 6 0  68 6 0  70 6 0  72 6 0  74 6 0  76 6 0  78 6 0  80 6 0  82 6 0  84 6 0  86 6 0  88 6 0  90 6 0  92 6 0  94 6 0  96 6 0  98 6 0  100 6 0  102 6 0  104 6 0  106 6 0  108 6 0  110 6 0  112 6 0  114 6 0  116 6 0  118 6 0  120 6 0  122 6 0  124 6 0  126 6 0  128 6 0  130 6 0  132 6 0  134 6 0  136 6 0  138 6 0  140 6 0  142 6 0  144 6 0  146 6 0  148 6 0  150 6 0  152 6 0  154 6 0  156 6 0  158 6 0  160 6 0  0 8 0  2 8 0  4 8 0  6 8 0  8 8 0  10 8 0  12 8 0  14 8 0  16 8 0  18 8 0  20 8 0  22 8 0  24 8 0  26 8 0  28 8 0  30 8 0  32 8 0  34 8 0  36 8 0  38 8 0  40 8 0  42 8 0  44 8 0  46 8 0  48 8 0  50 8 0  52 8 0  54 8 0  56 8 0  58 8 0  60 8 0  62 8 0  64 8 0  66 8 0  68 8 0  70 8 0  72 8 0  74 8 0  76 8 0  78 8 0  80 8 0  82 8 0  84 8 0  86 8 0  88 8 0  90 8 0  92 8 0  94 8 0  96 8 0  98 8 0  100 8 0  102 8 0  104 8 0  106 8 0  108 8 0  110 8 0  112 8 0  114 8 0  116 8 0  118 8 0  120 8 0  122 8 0  124 8 0  126 8 0  128 8 0  130 8 0  132 8 0  134 8 0  136 8 0  138 8 0  140 8 0  142 8 0  144 8 0  146 8 0  148 8 0  150 8 0  152 8 0  154 8 0  156 8 0  158 8 0  160 8 0  0 10 0  2 10 0  4 10 0  6 10 0  8 10 0  10 10 0  12 10 0  14 10 0  16 10 0  18 10 0  20 10 0  22 10 0  24 10 0  26 10 0  28 10 0  30 10 0  32 10 0  34 10 0  36 10 0  38 10 0  40 10 0  42 10 0  44 10 0  46 10 0  48 10 0  50 10 0  52 10 0  54 10 0  56 10 0  58 10 0  60 10 0  62 10 0  64 10 0  66 10 0  68 10 0  70 10 0  72 10 0  74 10 0  76 10 0  78 10 0  80 10 0  82 10 0  84 10 0  86 10 0  88 10 0  90 10 0  92 10 0  94 10 0  96 10 0  98 10 0  100 10 0  102 10 0  104 10 0  106 10 0  108 10 0  110 10 0  112 10 0  114 10 0  116 10 0  118 10 0  120 10 0  122 10 0  124 10 0  126 10 0  128 10 0  130 10 0  132 10 0  134 10 0  136 10 0  138 10 0  140 10 0  142 10 0  144 10 0  146 10 0  148 10 0  150 10 0  152 10 0  154 10 0  156 10 0  158 10 0  160 10 0  0 12 0  2 12 0  4 12 0  6 12 0  8 12 0  10 12 0  12 12 0  14 12 0  16 12 0  18 12 0  20 12 0  22 12 0  24 12 0  26 12 0  28 12 0  30 12 0  32 12 0  34 12 0  36 12 0  38 12 0  40 12 0  42 12 0  44 12 0  46 12 0  48 12 0  50 12 0  52 12 0  54 12 0  56 12 0  58 12 0  60 12 0  62 12 0  64 12 0  66 12 0  68 12 0  70 12 0  72 12 0  74 12 0  76 12 0  78 12 0  80 12 0  82 12 0  84 12 0  86 12 0  88 12 0  90 12 0  92 12 0  94 12 0  96 12 0  98 12 0  100 12 0  102 12 0  104 12 0  106 12 0  108 12 0  110 12 0  112 12 0  114 12 0  116 12 0  118 12 0  120 12 0  122 12 0  124 12 0  126 12 0  128 12 0  130 12 0  132 12 0  134 12 0  136 12 0  138 12 0  140 12 0  142 12 0  144 12 0  146 12 0  148 12 0  150 12 0  152 12 0  154 12 0  156 12 0  158 12 0  160 12 0  0 14 0  2 14 0  4 14 0  6 14 0  8 14 0  10 14 0  12 14 0  14 14 0  16 14 0  18 14 0  20 14 0  22 14 0  24 14 0  26 14 0  28 14 0  30 14 0  32 14 0  34 14 0  36 14 0  38 14 0  40 14 0  42 14 0  44 14 0  46 14 0  48 14 0  50 14 0  52 14 0  54 14 0  56 14 0  58 14 0  60 14 0  62 14 0  64 14 0  66 14 0  68 14 0  70 14 0  72 14 0  74 14 0  76 14 0  78 14 0  80 14 0  82 14 0  84 14 0  86 14 0  88 14 0  90 14 0  92 14 0  94 14 0  96 14 0  98 14 0  100 14 0  102 14 0  104 14 0  106 14 0  108 14 0  110 14 0  112 14 0  114 14 0  116 14 0  118 14 0  120 14 0  122 14 0  124 14 0  126 14 0  128 14 0  130 14 0  132 14 0  134 14 0  136 14 0  138 14 0  140 14 0  142 14 0  144 14 0  146 14 0  148 14 0  150 14 0  152 14 0  154 14 0  156 14 0  158 14 0  160 14 0  0 16 0  2 16 0  4 16 0  6 16 0  8 16 0  10 16 0  12 16 0  14 16 0  16 16 0  18 16 0  20 16 0  22 16 0  24 16 0  26 16 0  28 16 0  30 16 0  32 16 0  34 16 0  36 16 0  38 16 0  40 16 0  42 16 0  44 16 0  46 16 0  48 16 0  50 16 0  52 16 0  54 16 0  56 16 0  58 16 0  60 16 0  62 16 0  64 16 0  66 16 0  68 16 0  70 16 0  72 16 0  74 16 0  76 16 0  78 16 0  80 16 0  82 16 0  84 16 0  86 16 0  88 16 0  90 16 0  92 16 0  94 16 0  96 16 0  98 16 0  100 16 0  102 16 0  104 16 0  106 16 0  108 16 0  110 16 0  112 16 0  114 16 0  116 16 0  118 16 0  120 16 0  122 16 0  124 16 0  126 16 0  128 16 0  130 16 0  132 16 0  134 16 0  136 16 0  138 16 0  140 16 0  142 16 0  144 16 0  146 16 0  148 16 0  150 16 0  152 16 0  154 16 0  156 16 0  158 16 0  160 16 0  0 18 0  2 18 0  4 18 0  6 18 0  8 18 0  10 18 0  12 18 0  14 18 0  16 18 0  18 18 0  20 18 0  22 18 0  24 18 0  26 18 0  28 18 0  30 18 0  32 18 0  34 18 0  36 18 0  38 18 0  40 18 0  42 18 0  44 18 0  46 18 0  48 18 0  50 18 0  52 18 0  54 18 0  56 18 0  58 18 0  60 18 0  62 18 0  64 18 0  66 18 0  68 18 0  70 18 0  72 18 0  74 18 0  76 18 0  78 18 0  80 18 0  82 18 0  84 18 0  86 18 0  88 18 0  90 18 0  92 18 0  94 18 0  96 18 0  98 18 0  100 18 0  102 18 0  104 18 0  106 18 0  108 18 0  110 18 0  112 18 0  114 18 0  116 18 0  118 18 0  120 18 0  122 18 0  124 18 0  126 18 0  128 18 0  130 18 0  132 18 0  134 18 0  136 18 0  138 18 0  140 18 0  142 18 0  144 18 0  146 18 0  148 18 0  150 18 0  152 18 0  154 18 0  156 18 0  158 18 0  160 18 0  0 20 0  2 20 0  4 20 0  6 20 0  8 20 0  10 20 0  12 20 0  14 20 0  16 20 0  18 20 0  20 20 0  22 20 0  24 20 0  26 20 0  28 20 0  30 20 0  32 20 0  34 20 0  36 20 0  38 20 0  40 20 0  42 20 0  44 20 0  46 20 0  48 20 0  50 20 0  52 20 0  54 20 0  56 20 0  58 20 0  60 20 0  62 20 0  64 20 0  66 20 0  68 20 0  70 20 0  72 20 0  74 20 0  76 20 0  78 20 0  80 20 0  82 20 0  84 20 0  86 20 0  88 20 0  90 20 0  92 20 0  94 20 0  96 20 0  98 20 0  100 20 0  102 20 0  104 20 0  106 20 0  108 20 0  110 20 0  112 20 0  114 20 0  116 20 0  118 20 0  120 20 0  122 20 0  124 20 0  126 20 0  128 20 0  130 20 0  132 20 0  134 20 0  136 20 0  138 20 0  140 20 0  142 20 0  144 20 0  146 20 0  148 20 0  150 20 0  152 20 0  154 20 0  156 20 0  158 20 0  160 20 0  0 22 0  2 22 0  4 22 0  6 22 0  8 22 0  10 22 0  12 22 0  14 22 0  16 22 0  18 22 0  20 22 0  22 22 0  24 22 0  26 22 0  28 22 0  30 22 0  32 22 0  34 22 0  36 22 0  38 22 0  40 22 0  42 22 0  44 22 0  46 22 0  48 22 0  50 22 0  52 22 0  54 22 0  56 22 0  58 22 0  60 22 0  62 22 0  64 22 0  66 22 0  68 22 0  70 22 0  72 22 0  74 22 0  76 22 0  78 22 0  80 22 0  82 22 0  84 22 0  86 22 0  88 22 0  90 22 0  92 22 0  94 22 0  96 22 0  98 22 0  100 22 0  102 22 0  104 22 0  106 22 0  108 22 0  110 22 0  112 22 0  114 22 0  116 22 0  118 22 0  120 22 0  122 22 0  124 22 0  126 22 0  128 22 0  130 22 0  132 22 0  134 22 0  136 22 0  138 22 0  140 22 0  142 22 0  144 22 0  146 22 0  148 22 0  150 22 0  152 22 0  154 22 0  156 22 0  158 22 0  160 22 0  0 24 0  2 24 0  4 24 0  6 24 0  8 24 0  10 24 0  12 24 0  14 24 0  16 24 0  18 24 0  20 24 0  22 24 0  24 24 0  26 24 0  28 24 0  30 24 0  32 24 0  34 24 0  36 24 0  38 24 0  40 24 0  42 24 0  44 24 0  46 24 0  48 24 0  50 24 0  52 24 0  54 24 0  56 24 0  58 24 0  60 24 0  62 24 0  64 24 0  66 24 0  68 24 0  70 24 0  72 24 0  74 24 0  76 24 0  78 24 0  80 24 0  82 24 0  84 24 0  86 24 0  88 24 0  90 24 0  92 24 0  94 24 0  96 24 0  98 24 0  100 24 0  102 24 0  104 24 0  106 24 0  108 24 0  110 24 0  112 24 0  114 24 0  116 24 0  118 24 0  120 24 0  122 24 0  124 24 0  126 24 0  128 24 0  130 24 0  132 24 0  134 24 0  136 24 0  138 24 0  140 24 0  142 24 0  144 24 0  146 24 0  148 24 0  150 24 0  152 24 0  154 24 0  156 24 0  158 24 0  160 24 0  0 26 0  2 26 0  4 26 0  6 26 0  8 26 0  10 26 0  12 26 0  14 26 0  16 26 0  18 26 0  20 26 0  22 26 0  24 26 0  26 26 0  28 26 0  30 26 0  32 26 0  34 26 0  36 26 0  38 26 0  40 26 0  42 26 0  44 26 0  46 26 0  48 26 0  50 26 0  52 26 0  54 26 0  56 26 0  58 26 0  60 26 0  62 26 0  64 26 0  66 26 0  68 26 0  70 26 0  72 26 0  74 26 0  76 26 0  78 26 0  80 26 0  82 26 
[...]
<CellData  Scalars="density"> 
<DataArray  type="Float64"  Name="density"  format="ascii">1.0000000000000002e+00   1.0000000000000002e+00   1.0000000000000000e+00   1.0000000000000004e+00   1.0000000000000000e+00   1.0000000000000000e+00   1.0000000000000000e+00   1.0000000000000000e+00   1.0000000000000000e+00   1.0000000000000000e+00   1.0000000000000004e+00   1.0000000000000000e+00   1.0000000000000000e+00   1.0000000000000000e+00   1.0000000000000004e+00   1.0000000000000000e+00   1.0000000000000000e+00   1.0000000000000000e+00   1.0000000000000004e+00   1.0000000000000000e+00   1.0000000000000004e+00   1.0000000000000000e+00   1.0000000000000004e+00   1.0000000000000000e+00   1.0000000000000004e+00   1.0000000000000000e+00   1.0000000000000000e+00   1.0000000000000000e+00   1.0000000000000000e+00   1.0000000000000000e+00   1.0000000000000000e+00   1.0000000000000000e+00   1.0000000000000004e+00   1.0000000000000004e+00   1.0000000000000000e+00   1.0000000000000000e+00   1.0000000000000000e+00   1.0000000000000000e+00   1.0000000000000000e+00   1.0000000000000000e+00   1.0000000000000000e+00   1.0000000000000000e+00   1.0000000000000000e+00   1.0000000000000000e+00   1.0000000000000000e+00   1.0000000000000000e+00   1.0000000000000000e+00   1.0000000000000000e+00   9.4821829945926361e-01   7.9690453139807060e-01   5.3171385499468382e-01   3.0313837018502288e-01   1.2593375185346156e-01   3.7126025656362562e-02   1.0000000000000000e-04   1.0000000000000002e-04   1.0000000000000000e-04   1.0000000000000000e-04   1.0000000000000002e-04   1.0000000000000000e-04   1.0000000000000000e-04   1.0000000000000000e-04   1.0000000000000000e-04   1.0000000000000000e-04   1.0000000000000000e-04   1.0000000000000000e-04   1.0000000000000000e-04   1.0000000000000002e-04   1.0000000000000000e-04   1.0000000000000000e-04   1.0000000000000000e-04   1.0000000000000000e-04   1.0000000000000000e-04   1.0000000000000000e-04   1.0000000000000000e-04   1.0000000000000000e-04   1.0000000000000000e-04   1.0000000000000000e-04   1.0000000000000002e-04   1.0000000000000003e-04   1.0000000000000002e+00   9.9999999999999989e-01   9.9999999999999967e-01   9.9999999999999967e-01   9.9999999999999967e-01   9.9999999999999967e-01   9.9999999999999967e-01   9.9999999999999967e-01   9.9999999999999967e-01   9.9999999999999967e-01   9.9999999999999967e-01   9.9999999999999967e-01   9.9999999999999967e-01   9.9999999999999967e-01   9.9999999999999978e-01   9.9999999999999967e-01   9.9999999999999967e-01   9.9999999999999967e-01   9.9999999999999967e-01   9.9999999999999967e-01   9.9999999999999967e-01   9.9999999999999967e-01   9.9999999999999967e-01   9.9999999999999967e-01   9.9999999999999967e-01   9.9999999999999967e-01   9.9999999999999967e-01   9.9999999999999967e-01   9.9999999999999967e-01   9.9999999999999967e-01   9.9999999999999967e-01   9.9999999999999967e-01   9.9999999999999967e-01   9.9999999999999967e-01   9.9999999999999967e-01   9.9999999999999967e-01   9.9999999999999967e-01   9.9999999999999967e-01   9.9999999999999967e-01   9.9999999999999967e-01   9.9999999999999967e-01   9.9999999999999967e-01   9.9999999999999967e-01   9.9999999999999967e-01   9.9999999999999967e-01   9.9999999999999967e-01   9.9999999999999967e-01   9.9999999999999967e-01   9.7287808618714866e-01   8.7019594189683480e-01   7.0276223847225605e-01   4.8138564725661026e-01   3.0579532259720510e-01   1.8414788572886676e-01   9.2274412781750900e-02   2.7221913812850985e-02   9.9999999999999978e-05   9.9999999999999978e-05   9.9999999999999978e-05   9.9999999999999978e-05   9.9999999999999978e-05   9.9999999999999978e-05   9.9999999999999978e-05   9.9999999999999978e-05   9.9999999999999978e-05   9.9999999999999978e-05   9.9999999999999978e-05   9.9999999999999978e-05   9.9999999999999978e-05   9.9999999999999978e-05   9.9999999999999978e-05   9.9999999999999978e-05   9.9999999999999978e-05   9.9999999999999978e-05   9.9999999999999978e-05   9.9999999999999978e-05   9.9999999999999978e-05   9.9999999999999978e-05   9.9999999999999978e-05   1.0000000000000003e-04   1.0000000000000000e+00   9.9999999999999956e-01   9.9999999999999978e-01   9.9999999999999978e-01   9.9999999999999978e-01   9.9999999999999978e-01   9.9999999999999978e-01   9.9999999999999978e-01   9.9999999999999978e-01   9.9999999999999978e-01   9.9999999999999978e-01   9.9999999999999978e-01   9.9999999999999978e-01   9.9999999999999978e-01   9.9999999999999978e-01   9.7516725847244101e-01   9.4043813044450242e-01   9.1560538891694365e-01   9.1560538891694365e-01   9.1560538891694365e-01   9.1560538891694365e-01   9.1560538891694365e-01   9.1560538891694365e-01   9.1560538891694365e-01   9.1560538891694365e-01   9.1560538891694365e-01   9.1560538891694365e-01   9.1560538891694365e-01   9.1560538891694365e-01   9.1560538891694365e-01   9.1560538891694365e-01   9.1560538891694365e-01   9.1560538891694365e-01   9.1560538891694365e-01   9.1560538891694365e-01   9.1560538891694365e-01   9.1560538891694365e-01   9.1560538891694365e-01   9.1560538891694365e-01   9.1560538891694365e-01   9.4043813044450242e-01   9.7516725847244101e-01   9.9999999999999978e-01   9.9999999999999978e-01   9.9999999999999978e-01   9.9999999999999978e-01   9.9999999999999978e-01   9.9999999999999978e-01   9.9999999999999978e-01   9.5033451694488225e-01   8.5631905895575378e-01   7.2010629542509741e-01   5.8416907148874841e-01   4.1593092851125130e-01   2.7999370457490236e-01   1.6861368257180462e-01   8.4494611083056087e-02   2.4932741527558724e-02   9.9999999999999951e-05   9.9999999999999951e-05   9.9999999999999951e-05   9.9999999999999951e-05   9.9999999999999951e-05   9.9999999999999951e-05   9.9999999999999951e-05   9.9999999999999951e-05   9.9999999999999951e-05   9.9999999999999951e-05   9.9999999999999951e-05   9.9999999999999951e-05   9.9999999999999964e-05   9.9999999999999951e-05   9.9999999999999951e-05   9.9999999999999951e-05   9.9999999999999951e-05   9.9999999999999964e-05   9.9999999999999951e-05   9.9999999999999951e-05   9.9999999999999991e-05   1.0000000000000000e-04   9.1119227380290091e-01   9.3494750103109958e-01   9.7516725847244101e-01   9.9999999999999978e-01   9.9999999999999978e-01   9.9999999999999978e-01   9.9999999999999978e-01   9.9999999999999978e-01   9.9999999999999978e-01   9.9999999999999978e-01   9.9999999999999978e-01   9.9999999999999978e-01   9.9999999999999978e-01   9.9999999999999978e-01   9.5033451694488225e-01   8.5631905895575378e-01   7.5483542345303589e-01   6.9554909349184602e-01   6.7071635196428725e-01   6.7071635196428725e-01   6.7071635196428725e-01   6.7071635196428725e-01   6.7071635196428725e-01   6.7071635196428725e-01   6.7071635196428725e-01   6.7071635196428725e-01   6.7071635196428725e-01   6.7071635196428725e-01   6.7071635196428725e-01   6.7071635196428725e-01   6.7071635196428725e-01   6.7071635196428725e-01   6.7071635196428725e-01   6.7071635196428725e-01   6.7071635196428725e-01   6.7071635196428725e-01   6.7071635196428725e-01   6.7071635196428725e-01   6.7071635196428725e-01   6.9554909349184602e-01   7.5483542345303589e-01   8.5631905895575378e-01   9.5033451694488225e-01   9.9999999999999978e-01   9.9999999999999978e-01   9.9999999999999978e-01   9.9999999999999978e-01   9.9999999999999978e-01   9.9999999999999978e-01   9.9999999999999978e-01   9.7516725847244101e-01   9.1560538891694365e-01   8.3148631742819523e-01   7.2010629542509741e-01   5.8416907148874830e-01   4.1593092851125130e-01   2.7999370457490236e-01   1.6861368257180462e-01   8.4494611083056059e-02   2.4932741527558727e-02   9.9999999999999964e-05   9.9999999999999951e-05   9.9999999999999951e-05   9.9999999999999951e-05   9.9999999999999951e-05   9.9999999999999951e-05   9.9999999999999951e-05   9.9999999999999951e-05   9.9999999999999951e-05   9.9999999999999951e-05   9.9999999999999951e-05   9.9999999999999951e-05   9.9999999999999951e-05   9.9999999999999951e-05   9.9999999999999951e-05   9.9999999999999951e-05   9.9999999999999951e-05   9.9999999999999951e-05   9.9999999999999978e-05   1.0000000000000002e-04   7.0850763926360827e-01   7.5935717637169431e-01   8.3148631742819501e-01   8.9077264738938489e-01   9.4043813044450242e-01   9.7516725847244101e-01   9.9999999999999978e-01   9.9999999999999978e-01   9.9999999999999978e-01   9.9999999999999978e-01   9.9999999999999978e-01   9.9999999999999978e-01   9.9999999999999978e-01   9.7516725847244101e-01   8.8115180048331254e-01   7.0301727100543554e-01   4.9042915309392737e-01   3.6411277606365072e-01   3.2938364803571207e-01   3.2938364803571207e-01   3.2938364803571207e-01   3.2988142660081982e-01   3.3007980216343918e-01   3.2988142660081982e-01   3.2938364803571207e-01   3.2938364803571207e-01   3.2938364803571207e-01   3.2938364803571207e-01   3.2938364803571207e-01   3.2938364803571207e-01   3.2938364803571207e-01   3.2938364803571207e-01   3.2938364803571207e-01   3.2938364803571207e-01   3.2938364803571207e-01   3.2938364803571207e-01   3.2938364803571207e-01   3.2938364803571207e-01   3.2938364803571207e-01   3.6411277606365072e-01   4.9042915309392737e-01   7.0301727100543554e-01   8.8115180048331254e-01   9.7516725847244101e-01   9.7516725847244101e-01   9.4043813044450242e-01   9.1560538891694365e-01   9.1560538891694365e-01   9.4043813044450242e-01   9.7516725847244101e-01   9.9999999999999978e-01   9.9999999999999978e-01   9.7516725847244101e-01   9.1560538891694365e-01   8.3148631742819523e-01   7.2010629542509741e-01   5.8416907148874830e-01   4.1593092851125130e-01   2.7999370457490236e-01   1.6861368257180462e-01   8.4494611083056087e-02   2.4932741527558724e-02   9.9999999999999951e-05   9.9999999999999951e-05   9.9999999999999951e-05   9.9999999999999951e-05   9.9999999999999951e-05   9.9999999999999951e-05   9.9999999999999951e-05   9.9999999999999951e-05   9.9999999999999951e-05   9.9999999999999951e-05   9.9999999999999951e-05   9.9999999999999951e-05   9.9999999999999951e-05   9.9999999999999951e-05   9.9999999999999951e-05   9.9999999999999951e-05   9.9999999999999991e-05   1.0000000000000000e-04   3.8040008693349070e-01   4.5426373344375937e-01   5.5933632996118954e-01   6.6081996546390742e-01   7.5483542345303589e-01   8.3148631742819501e-01   9.1560538891694365e-01   9.7516725847244101e-01   9.9999999999999978e-01   9.9999999999999978e-01   9.9999999999999978e-01   9.9999999999999978e-01   9.9999999999999978e-01   9.6527087197206118e-01   8.3895449494178453e-01   6.0180917509702525e-01   3.7185649317154784e-01   1.9372196369367087e-01   1.0932735261061483e-01   8.4494611083056101e-02   8.4992389648163830e-02   8.5683020515250008e-02   8.6073389284282195e-02   8.5742166382881721e-02   8.5034681353332461e-02   8.4494611083056101e-02   8.4494611083056101e-02   8.4494611083056101e-02   8.4494611083056101e-02   8.4494611083056101e-02   8.4494611083056101e-02   8.4494611083056101e-02   8.4494611083056101e-02   8.4494611083056101e-02   8.4494611083056101e-02   8.4494611083056101e-02   8.4494611083056101e-02   8.4494611083056101e-02   8.4494611083056101e-02   1.5899283566573225e-01   3.4702375164398919e-01   6.0180917509702514e-01   8.3895449494178465e-01   9.4043813044450242e-01   8.9104818698369237e-01   7.7966816498059466e-01   6.9554909349184602e-01   6.9554909349184602e-01   7.5483542345303589e-01   8.3148631742819501e-01   9.1560538891694365e-01   9.7516725847244101e-01   9.9999999999999978e-01   9.9999999999999978e-01   9.7516725847244101e-01   9.1560538891694387e-01   8.3148631742819523e-01   7.2010629542509741e-01   5.8416907148874830e-01   4.1593092851125130e-01   2.7999370457490241e-01   1.6861368257180462e-01   8.4494611083056087e-02   2.4932741527558727e-02   9.9999999999999951e-05   9.9999999999999964e-05   9.9999999999999951e-05   9.9999999999999951e-05   9.9999999999999964e-05   9.9999999999999951e-05   9.9999999999999951e-05   9.9999999999999951e-05   9.9999999999999964e-05   9.9999999999999964e-05   9.9999999999999951e-05   9.9999999999999964e-05   9.9999999999999951e-05   9.9999999999999951e-05   9.9999999999999991e-05   1.0000000000000002e-04   1.2593375185346153e-01   1.8414788572886678e-01   2.4526457654696376e-01   3.3928003453609201e-01   4.4076367003880984e-01   5.8416907148874830e-01   7.2010629542509730e-01   8.3148631742819501e-01   9.1560538891694365e-01   9.7516725847244101e-01   9.9999999999999978e-01   9.9999999999999978e-01   9.9999999999999978e-01   9.7516725847244101e-01   8.8115180048331265e-01   7.0301727100543554e-01   4.6559641156636872e-01   2.7999370457490236e-01   1.4378094104424591e-01   4.9765483055117452e-02   7.9615412772708844e-04   1.6787782012261023e-03   2.5777871761010962e-03   1.7670277415865771e-03   8.9712243944034672e-04   1.4229170516863950e-04   9.9999999999999951e-05   9.9999999999999951e-05   9.9999999999999951e-05   9.9999999999999951e-05   9.9999999999999951e-05   9.9999999999999951e-05   9.9999999999999951e-05   9.9999999999999951e-05   9.9999999999999951e-05   9.9999999999999951e-05   9.9999999999999951e-05   9.9999999999999951e-05   2.4932741527558727e-02   1.4378094104424591e-01   3.8147734007762024e-01   6.7818452947787689e-01   8.8115180048331276e-01   8.9077264738938489e-01   7.4493903695265606e-01   5.2488274152755854e-01   3.8894551759120949e-01   3.6411277606365072e-01   4.4076367003880984e-01   5.8416907148874830e-01   7.2010629542509730e-01   8.3148631742819501e-01   9.1560538891694365e-01   9.7516725847244101e-01   9.9999999999999978e-01   9.9999999999999978e-01   9.7516725847244101e-01   9.1560538891694365e-01   8.3148631742819523e-01   7.2010629542509741e-01   5.8416907148874830e-01   4.1593092851125130e-01   2.7999370457490236e-01   1.5427834281235273e-01   6.4446327276876325e-02   1.0597401768106848e-02   9.9999999999999951e-05   9.9999999999999951e-05   9.9999999999999951e-05   9.9999999999999951e-05   9.9999999999999951e-05   9.9999999999999951e-05   9.9999999999999951e-05   9.9999999999999951e-05   9.9999999999999951e-05   9.9999999999999951e-05   9.9999999999999951e-05   9.9999999999999964e-05   9.9999999999999991e-05   1.0000000000000000e-04   1.0000000000000000e-04   2.7221913812850995e-02   5.9661869555497363e-02   1.0932735261061483e-01   1.6861368257180467e-01   2.7999370457490219e-01   4.1593092851125107e-01   5.8416907148874830e-01   7.2010629542509719e-01   8.5631905895575378e-01   9.5033451694488225e-01   9.9999999999999978e-01   9.9999999999999978e-01   9.9999999999999978e-01   9.5033451694488225e-01   8.5631905895575389e-01   7.2010629542509741e-01   5.5933632996118965e-01   3.5664459855006148e-01   2.0334281059974321e-01   8.4992389648163802e-02   2.6180296827384354e-02   1.7670277415865773e-03   1.4903460556204349e-03   7.2831981063684308e-04   1.5914586763171235e-04   9.9999999999999951e-05   9.9999999999999964e-05   9.9999999999999951e-05   9.9999999999999951e-05   9.9999999999999964e-05   9.9999999999999951e-05   9.9999999999999951e-05   9.9999999999999951e-05   9.9999999999999951e-05   9.9999999999999964e-05   9.9999999999999951e-05   9.9999999999999964e-05   8.4494611083056059e-02   2.7999370457490247e-01   5.5933632996118976e-01   7.9675718940025664e-01   9.1735405154178218e-01   8.2009154873960921e-01   5.7602134761320700e-01   3.0482644610246096e-01   1.4405648063855347e-01   1.0932735261061483e-01   1.6861368257180465e-01   2.7999370457490219e-01   4.1593092851125107e-01   5.8416907148874830e-01   7.2010629542509730e-01   8.3148631742819501e-01   9.1560538891694365e-01   9.7516725847244101e-01   9.9999999999999978e-01   9.9999999999999978e-01   9.7516725847244101e-01   9.1560538891694387e-01   8.3148631742819523e-01   7.2010629542509741e-01   5.6983373172929641e-01   3.8170636727456941e-01   2.3574500143513055e-01   1.1163569201770571e-01   3.8338106553605818e-02   2.1793122101417153e-03   9.9999999999999951e-05   9.9999999999999951e-05   9.9999999999999951e-05   9.9999999999999951e-05   9.9999999999999964e-05   9.9999999999999951e-05   9.9999999999999951e-05   9.9999999999999964e-05   9.9999999999999951e-05   9.9999999999999951e-05   9.9999999999999991e-05   1.0000000000000000e-04   1.0000000000000000e-04   9.9999999999999978e-05   9.9999999999999951e-05   9.9999999999999951e-05   2.4932741527558727e-02   8.4494611083056087e-02   1.6861368257180465e-01   2.7999370457490214e-01   4.4076367003880984e-01   6.4345540144993818e-01   7.9675718940025642e-01   9.1560538891694365e-01   9.7516725847244101e-01   9.9999999999999978e-01   9.9999999999999978e-01   9.7516725847244101e-01   9.1560538891694365e-01   7.9675718940025653e-01   6.4345540144993818e-01   4.4076367003881001e-01   2.7999370457490236e-01   1.6915375284208098e-01   8.5291733522496430e-02   2.5561061338195568e-02   2.0096831171325812e-04   1.4229170516863950e-04   9.9999999999999951e-05   9.9999999999999951e-05   9.9999999999999951e-05   9.9999999999999951e-05   9.9999999999999951e-05   9.9999999999999951e-05   9.9999999999999951e-05   9.9999999999999951e-05   9.9999999999999951e-05   9.9999999999999951e-05   9.9999999999999951e-05   2.4932741527558727e-02   1.6861368257180459e-01   4.1593092851125130e-01   7.2010629542509730e-01   9.0745766504140224e-01   8.9615330201860666e-01   6.9495682418246740e-01   3.9647884161291408e-01   1.6046595869626318e-01   2.4932741527558731e-02   9.9999999999999951e-05   2.4932741527558727e-02   8.4494611083056087e-02   1.6861368257180465e-01   2.7999370457490219e-01   4.1593092851125107e-01   5.8416907148874830e-01   7.2010629542509719e-01   8.3148631742819501e-01   9.1560538891694365e-01   9.7516725847244101e-01   9.9999999999999978e-01   9.9999999999999978e-01   9.7516725847244101e-01   9.1560538891694365e-01   8.1143803362201561e-01   6.7585759228532560e-01   4.9296651969796756e-01   3.1736009920736080e-01   1.8971271221960470e-01   8.9458814880127191e-02   2.7012053737700437e-02   9.9999999999999964e-05   9.9999999999999951e-05   9.9999999999999951e-05   9.9999999999999951e-05   9.9999999999999951e-05   9.9999999999999951e-05   9.9999999999999951e-05   9.9999999999999951e-05   9.9999999999999951e-05   9.9999999999999978e-05   1.0000000000000000e-04   1.0000000000000000e-04   9.9999999999999978e-05   9.9999999999999951e-05   9.9999999999999951e-05   9.9999999999999964e-05   9.9999999999999951e-05   2.4932741527558731e-02   8.4494611083056087e-02   2.0334281059974327e-01   3.5664459855006131e-01   5.5933632996118954e-01   7.2010629542509730e-01   8.3148631742819501e-01   9.1560538891694365e-01   9.7516725847244101e-01   9.9999999999999978e-01   9.9999999999999978e-01   9.5033451694488225e-01   8.5631905895575389e-01   7.2010629542509741e-01   5.8416907148874830e-01   4.1593092851125130e-01   2.8003599628007103e-01   1.4384008691187761e-01   4.9807774760286097e-02   9.9999999999999951e-05   9.9999999999999951e-05   9.9999999999999951e-05   9.9999999999999951e-05   9.9999999999999951e-05   9.9999999999999951e-05   9.9999999999999951e-05   9.9999999999999951e-05   9.9999999999999951e-05   9.9999999999999951e-05   9.9999999999999951e-05   9.9999999999999951e-05   8.4494611083056073e-02   2.7999370457490236e-01   5.8416907148874830e-01   8.3148631742819512e-01   9.2318598164882992e-01   7.8430486164508284e-01   5.2951113108460790e-01   2.5484423333227230e-01   7.3099842394470260e-02   9.9999999999999951e-05   9.9999999999999951e-05   9.9999999999999951e-05   9.9999999999999951e-05   2.4932741527558734e-02   8.4494611083056087e-02   1.6861368257180465e-01   2.7999370457490219e-01   4.1593092851125107e-01   5.8416907148874830e-01   7.2010629542509730e-01   8.3148631742819501e-01   9.1560538891694365e-01   9.7516725847244101e-01   9.9999999999999978e-01   9.9999999999999978e-01   9.6083191871298912e-01   8.8138082768026182e-01   7.5541644951842501e-01   6.1564902563929758e-01   4.3635673787350032e-01   2.8641189000094358e-01   1.7152164582974486e-01   8.4494611083056087e-02   2.4932741527558724e-02   9.9999999999999951e-05   9.9999999999999951e-05   9.9999999999999951e-05   9.9999999999999951e-05   9.9999999999999951e-05   9.99999999