<?xml version="1.0"?>
<VTKFile type="UnstructuredGrid"  version="0.1"  >
<UnstructuredGrid>
<Piece  NumberOfPoints="3321" NumberOfCells="3200">
<Points>
<DataArray  type="Float64"  NumberOfComponents="3"  format="ascii">0 0 0  0.025 0 0  0.05 0 0  0.075 0 0  0.1 0 0  0.125 0 0  0.15 0 0  0.175 0 0  0.2 0 0  0.225 0 0  0.25 0 0  0.275 0 0  0.3 0 0  0.325 0 0  0.35 0 0  0.375 0 0  0.4 0 0  0.425 0 0  0.45 0 0  0.475 0 0  0.5 0 0  0.525 0 0  0.55 0 0  0.575 0 0  0.6 0 0  0.625 0 0  0.65 0 0  0.675 0 0  0.7 0 0  0.725 0 0  0.75 0 0  0.775 0 0  0.8 0 0  0.825 0 0  0.85 0 0  0.875 0 0  0.9 0 0  0.925 0 0  0.95 0 0  0.975 0 0  1 0 0  1.025 0 0  1.05 0 0  1.075 0 0  1.1 0 0  1.125 0 0  1.15 0 0  1.175 0 0  1.2 0 0  1.225 0 0  1.25 0 0  1.275 0 0  1.3 0 0  1.325 0 0  1.35 0 0  1.375 0 0  1.4 0 0  1.425 0 0  1.45 0 0  1.475 0 0  1.5 0 0  1.525 0 0  1.55 0 0  1.575 0 0  1.6 0 0  1.625 0 0  1.65 0 0  1.675 0 0  1.7 0 0  1.725 0 0  1.75 0 0  1.775 0 0  1.8 0 0  1.825 0 0  1.85 0 0  1.875 0 0  1.9 0 0  1.925 0 0  1.95 0 0  1.975 0 0  2 0 0  0 0.025 0  0.025 0.025 0  0.05 0.025 0  0.075 0.025 0  0.1 0.025 0  0.125 0.025 0  0.15 0.025 0  0.175 0.025 0  0.2 0.025 0  0.225 0.025 0  0.25 0.025 0  0.275 0.025 0  0.3 0.025 0  0.325 0.025 0  0.35 0.025 0  0.375 0.025 0  0.4 0.025 0  0.425 0.025 0  0.45 0.025 0  0.475 0.025 0  0.5 0.025 0  0.525 0.025 0  0.55 0.025 0  0.575 0.025 0  0.6 0.025 0  0.625 0.025 0  0.65 0.025 0  0.675 0.025 0  0.7 0.025 0  0.725 0.025 0  0.75 0.025 0  0.775 0.025 0  0.8 0.025 0  0.825 0.025 0  0.85 0.025 0  0.875 0.025 0  0.9 0.025 0  0.925 0.025 0  0.95 0.025 0  0.975 0.025 0  1 0.025 0  1.025 0.025 0  1.05 0.025 0  1.075 0.025 0  1.1 0.025 0  1.125 0.025 0  1.15 0.025 0  1.175 0.025 0  1.2 0.025 0  1.225 0.025 0  1.25 0.025 0  1.275 0.025 0  1.3 0.025 0  1.325 0.025 0  1.35 0.025 0  1.375 0.025 0  1.4 0.025 0  1.425 0.025 0  1.45 0.025 0  1.475 0.025 0  1.5 0.025 0  1.525 0.025 0  1.55 0.025 0  1.575 0.025 0  1.6 0.025 0  1.625 0.025 0  1.65 0.025 0  1.675 0.025 0  1.7 0.025 0  1.725 0.025 0  1.75 0.025 0  1.775 0.025 0  1.8 0.025 0  1.825 0.025 0  1.85 0.025 0  1.875 0.025 0  1.9 0.025 0  1.925 0.025 0  1.95 0.025 0  1.975 0.025 0  2 0.025 0  0 0.05 0  0.025 0.05 0  0.05 0.05 0  0.075 0.05 0  0.1 0.05 0  0.125 0.05 0  0.15 0.05 0  0.175 0.05 0  0.2 0.05 0  0.225 0.05 0  0.25 0.05 0  0.275 0.05 0  0.3 0.05 0  0.325 0.05 0  0.35 0.05 0  0.375 0.05 0  0.4 0.05 0  0.425 0.05 0  0.45 0.05 0  0.475 0.05 0  0.5 0.05 0  0.525 0.05 0  0.55 0.05 0  0.575 0.05 0  0.6 0.05 0  0.625 0.05 0  0.65 0.05 0  0.675 0.05 0  0.7 0.05 0  0.725 0.05 0  0.75 0.05 0  0.775 0.05 0  0.8 0.05 0  0.825 0.05 0  0.85 0.05 0  0.875 0.05 0  0.9 0.05 0  0.925 0.05 0  0.95 0.05 0  0.975 0.05 0  1 0.05 0  1.025 0.05 0  1.05 0.05 0  1.075 0.05 0  1.1 0.05 0  1.125 0.05 0  1.15 0.05 0  1.175 0.05 0  1.2 0.05 0  1.225 0.05 0  1.25 0.05 0  1.275 0.05 0  1.3 0.05 0  1.325 0.05 0  1.35 0.05 0  1.375 0.05 0  1.4 0.05 0  1.425 0.05 0  1.45 0.05 0  1.475 0.05 0  1.5 0.05 0  1.525 0.05 0  1.55 0.05 0  1.575 0.05 0  1.6 0.05 0  1.625 0.05 0  1.65 0.05 0  1.675 0.05 0  1.7 0.05 0  1.725 0.05 0  1.75 0.05 0  1.775 0.05 0  1.8 0.05 0  1.825 0.05 0  1.85 0.05 0  1.875 0.05 0  1.9 0.05 0  1.925 0.05 0  1.95 0.05 0  1.975 0.05 0  2 0.05 0  0 0.075 0  0.025 0.075 0  0.05 0.075 0  0.075 0.075 0  0.1 0.075 0  0.125 0.075 0  0.15 0.075 0  0.175 0.075 0  0.2 0.075 0  0.225 0.075 0  0.25 0.075 0  0.275 0.075 0  0.3 0.075 0  0.325 0.075 0  0.35 0.075 0  0.375 0.075 0  0.4 0.075 0  0.425 0.075 0  0.45 0.075 0  0.475 0.075 0  0.5 0.075 0  0.525 0.075 0  0.55 0.075 0  0.575 0.075 0  0.6 0.075 0  0.625 0.075 0  0.65 0.075 0  0.675 0.075 0  0.7 0.075 0  0.725 0.075 0  0.75 0.075 0  0.775 0.075 0  0.8 0.075 0  0.825 0.075 0  0.85 0.075 0  0.875 0.075 0  0.9 0.075 0  0.925 0.075 0  0.95 0.075 0  0.975 0.075 0  1 0.075 0  1.025 0.075 0  1.05 0.075 0  1.075 0.075 0  1.1 0.075 0  1.125 0.075 0  1.15 0.075 0  1.175 0.075 0  1.2 0.075 0  1.225 0.075 0  1.25 0.075 0  1.275 0.075 0  1.3 0.075 0  1.325 0.075 0  1.35 0.075 0  1.375 0.075 0  1.4 0.075 0  1.425 0.075 0  1.45 0.075 0  1.475 0.075 0  1.5 0.075 0  1.525 0.075 0  1.55 0.075 0  1.575 0.075 0  1.6 0.075 0  1.625 0.075 0  1.65 0.075 0  1.675 0.075 0  1.7 0.075 0  1.725 0.075 0  1.75 0.075 0  1.775 0.075 0  1.8 0.075 0  1.825 0.075 0  1.85 0.075 0  1.875 0.075 0  1.9 0.075 0  1.925 0.075 0  1.95 0.075 0  1.975 0.075 0  2 0.075 0  0 0.1 0  0.025 0.1 0  0.05 0.1 0  0.075 0.1 0  0.1 0.1 0  0.125 0.1 0  0.15 0.1 0  0.175 0.1 0  0.2 0.1 0  0.225 0.1 0  0.25 0.1 0  0.275 0.1 0  0.3 0.1 0  0.325 0.1 0  0.35 0.1 0  0.375 0.1 0  0.4 0.1 0  0.425 0.1 0  0.45 0.1 0  0.475 0.1 0  0.5 0.1 0  0.525 0.1 0  0.55 0.1 0  0.575 0.1 0  0.6 0.1 0  0.625 0.1 0  0.65 0.1 0  0.675 0.1 0  0.7 0.1 0  0.725 0.1 0  0.75 0.1 0  0.775 0.1 0  0.8 0.1 0  0.825 0.1 0  0.85 0.1 0  0.875 0.1 0  0.9 0.1 0  0.925 0.1 0  0.95 0.1 0  0.975 0.1 0  1 0.1 0  1.025 0.1 0  1.05 0.1 0  1.075 0.1 0  1.1 0.1 0  1.125 0.1 0  1.15 0.1 0  1.175 0.1 0  1.2 0.1 0  1.225 0.1 0  1.25 0.1 0  1.275 0.1 0  1.3 0.1 0  1.325 0.1 0  1.35 0.1 0  1.375 0.1 0  1.4 0.1 0  1.425 0.1 0  1.45 0.1 0  1.475 0.1 0  1.5 0.1 0  1.525 0.1 0  1.55 0.1 0  1.575 0.1 0  1.6 0.1 0  1.625 0.1 0  1.65 0.1 0  1.675 0.1 0  1.7 0.1 0  1.725 0.1 0  1.75 0.1 0  1.775 0.1 0  1.8 0.1 0  1.825 0.1 0  1.85 0.1 0  1.875 0.1 0  1.9 0.1 0  1.925 0.1 0  1.95 0.1 0  1.975 0.1 0  2 0.1 0  0 0.125 0  0.025 0.125 0  0.05 0.125 0  0.075 0.125 0  0.1 0.125 0  0.125 0.125 0  0.15 0.125 0  0.175 0.125 0  0.2 0.125 0  0.225 0.125 0  0.25 0.125 0  0.275 0.125 0  0.3 0.125 0  0.325 0.125 0  0.35 0.125 0  0.375 0.125 0  0.4 0.125 0  0.425 0.125 0  0.45 0.125 0  0.475 0.125 0  0.5 0.125 0  0.525 0.125 0  0.55 0.125 0  0.575 0.125 0  0.6 0.125 0  0.625 0.125 0  0.65 0.125 0  0.675 0.125 0  0.7 0.125 0  0.725 0.125 0  0.75 0.125 0  0.775 0.125 0  0.8 0.125 0  0.825 0.125 0  0.85 0.125 0  0.875 0.125 0  0.9 0.125 0  0.925 0.125 0  0.95 0.125 0  0.975 0.125 0  1 0.125 0  1.025 0.125 0  1.05 0.125 0  1.075 0.125 0  1.1 0.125 0  1.125 0.125 0  1.15 0.125 0  1.175 0.125 0  1.2 0.125 0  1.225 0.125 0  1.25 0.125 0  1.275 0.125 0  1.3 0.125 0  1.325 0.125 0  1.35 0.125 0  1.375 0.125 0  1.4 0.125 0  1.425 0.125 0  1.45 0.125 0  1.475 0.125 0  1.5 0.125 0  1.525 0.125 0  1.55 0.125 0  1.575 0.125 0  1.6 0.125 0  1.625 0.125 0  1.65 0.125 0  1.675 0.125 0  1.7 0.125 0  1.725 0.125 0  1.75 0.125 0  1.775 0.125 0  1.8 0.125 0  1.825 0.125 0  1.85 0.125 0  1.875 0.125 0  1.9 0.125 0  1.925 0.125 0  1.95 0.125 0  1.975 0.125 0  2 0.125 0  0 0.15 0  0.025 0.15 0  0.05 0.15 0  0.075 0.15 0  0.1 0.15 0  0.125 0.15 0  0.15 0.15 0  0.175 0.15 0  0.2 0.15 0  0.225 0.15 0  0.25 0.15 0  0.275 0.15 0  0.3 0.15 0  0.325 0.15 0  0.35 0.15 0  0.375 0.15 0  0.4 0.15 0  0.425 0.15 0  0.45 0.15 0  0.475 0.15 0  0.5 0.15 0  0.525 0.15 0  0.55 0.15 0  0.575 0.15 0  0.6 0.15 0  0.625 0.15 0  0.65 0.15 0  0.675 0.15 0  0.7 0.15 0  0.725 0.15 0  0.75 0.15 0  0.775 0.15 0  0.8 0.15 0  0.825 0.15 0  0.85 0.15 0  0.875 0.15 0  0.9 0.15 0  0.925 0.15 0  0.95 0.15 0  0.975 0.15 0  1 0.15 0  1.025 0.15 0  1.05 0.15 0  1.075 0.15 0  1.1 0.15 0  1.125 0.15 0  1.15 0.15 0  1.175 0.15 0  1.2 0.15 0  1.225 0.15 0  1.25 0.15 0  1.275 0.15 0  1.3 0.15 0  1.325 0.15 0  1.35 0.15 0  1.375 0.15 0  1.4 0.15 0  1.425 0.15 0  1.45 0.15 0  1.475 0.15 0  1.5 0.15 0  1.525 0.15 0  1.55 0.15 0  1.575 0.15 0  1.6 0.15 0  1.625 0.15 0  1.65 0.15 0  1.675 0.15 0  1.7 0.15 0  1.725 0.15 0  1.75 0.15 0  1.775 0.15 0  1.8 0.15 0  1.825 0.15 0  1.85 0.15 0  1.875 0.15 0  1.9 0.15 0  1.925 0.15 0  1.95 0.15 0  1.975 0.15 0  2 0.15 0  0 0.175 0  0.025 0.175 0  0.05 0.175 0  0.075 0.175 0  0.1 0.175 0  0.125 0.175 0  0.15 0.175 0  0.175 0.175 0  0.2 0.175 0  0.225 0.175 0  0.25 0.175 0  0.275 0.175 0  0.3 0.175 0  0.325 0.175 0  0.35 0.175 0  0.375 0.175 0  0.4 0.175 0  0.425 0.175 0  0.45 0.175 0  0.475 0.175 0  0.5 0.175 0  0.525 0.175 0  0.55 0.175 0  0.575 0.175 0  0.6 0.175 0  0.625 0.175 0  0.65 0.175 0  0.675 0.175 0  0.7 0.175 0  0.725 0.175 0  0.75 0.175 0  0.775 0.175 0  0.8 0.175 0  0.825 0.175 0  0.85 0.175 0  0.875 0.175 0  0.9 0.175 0  0.925 0.175 0  0.95 0.175 0  0.975 0.175 0  1 0.175 0  1.025 0.175 0  1.05 0.175 0  1.075 0.175 0  1.1 0.175 0  1.125 0.175 0  1.15 0.175 0  1.175 0.175 0  1.2 0.175 0  1.225 0.175 0  1.25 0.175 0  1.275 0.175 0  1.3 0.175 0  1.325 0.175 0  1.35 0.175 0  1.375 0.175 0  1.4 0.175 0  1.425 0.175 0  1.45 0.175 0  1.475 0.175 0  1.5 0.175 0  1.525 0.175 0  1.55 0.175 0  1.575 0.175 0  1.6 0.175 0  1.625 0.175 0  1.65 0.175 0  1.675 0.175 0  1.7 0.175 0  1.725 0.175 0  1.75 0.175 0  1.775 0.175 0  1.8 0.175 0  1.825 0.175 0  1.85 0.175 0  1.875 0.175 0  1.9 0.175 0  1.925 0.175 0  1.95 0.175 0  1.975 0.175 0  2 0.175 0  0 0.2 0  0.025 0.2 0  0.05 0.2 0  0.075 0.2 0  0.1 0.2 0  0.125 0.2 0  0.15 0.2 0  0.175 0.2 0  0.2 0.2 0  0.225 0.2 0  0.25 0.2 0  0.275 0.2 0  0.3 0.2 0  0.325 0.2 0  0.35 0.2 0  0.375 0.2 0  0.4 0.2 0  0.425 0.2 0  0.45 0.2 0  0.475 0.2 0  0.5 0.2 0  0.525 0.2 0  0.55 0.2 0  0.575 0.2 0  0.6 0.2 0  0.625 0.2 0  0.65 0.2 0  0.675 0.2 0  0.7 0.2 0  0.725 0.2 0  0.75 0.2 0  0.775 0.2 0  0.8 0.2 0  0.825 0.2 0  0.85 0.2 0  0.875 0.2 0  0.9 0.2 0  0.925 0.2 0  0.95 0.2 0  0.975 0.2 0  1 0.2 0  1.025 0.2 0  1.05 0.2 0  1.075 0.2 0  1.1 0.2 0  1.125 0.2 0  1.15 0.2 0  1.175 0.2 0  1.2 0.2 0  1.225 0.2 0  1.25 0.2 0  1.275 0.2 0  1.3 0.2 0  1.325 0.2 0  1.35 0.2 0  1.375 0.2 0  1.4 0.2 0  1.425 0.2 0  1.45 0.2 0  1.475 0.2 0  1.5 0.2 0  1.525 0.2 0  1.55 0.2 0  1.575 0.2 0  1.6 0.2 0  1.625 0.2 0  1.65 0.2 0  1.675 0.2 0  1.7 0.2 0  1.725 0.2 0  1.75 0.2 0  1.775 0.2 0  1.8 0.2 0  1.825 0.2 0  1.85 0.2 0  1.875 0.2 0  1.9 0.2 0  1.925 0.2 0  1.95 0.2 0  1.975 0.2 0  2 0.2 0  0 0.225 0  0.025 0.225 0  0.05 0.225 0  0.075 0.225 0  0.1 0.225 0  0.125 0.225 0  0.15 0.225 0  0.175 0.225 0  0.2 0.225 0  0.225 0.225 0  0.25 0.225 0  0.275 0.225 0  0.3 0.225 0  0.325 0.225 0  0.35 0.225 0  0.375 0.225 0  0.4 0.225 0  0.425 0.225 0  0.45 0.225 0 
[...]
<CellData  Scalars="density"> 
<DataArray  type="Float64"  Name="density"  format="ascii">1.0000000000000000e+00   5.8582785898314238e-01   4.1427214101685766e-01   1.0000000000000002e-04   1.0000000000000002e-04   1.0000000000000003e-04   1.0000000000000000e-04   9.9999999999999991e-05   9.9999999999999991e-05   1.0000000000000000e-04   1.0000000000000000e-04   1.0000000000000002e-04   1.0000000000000002e-04   1.0000000000000002e-04   1.0000000000000002e-04   1.0000000000000000e-04   9.9999999999999991e-05   1.0000000000000002e-04   1.0000000000000002e-04   1.0000000000000002e-04   1.0000000000000003e-04   1.0000000000000003e-04   1.0000000000000002e-04   1.0000000000000000e-04   1.0000000000000000e-04   1.0000000000000002e-04   1.0000000000000003e-04   1.0000000000000003e-04   1.0000000000000002e-04   1.0000000000000000e-04   1.0000000000000002e-04   1.0000000000000003e-04   1.0000000000000003e-04   1.0000000000000002e-04   1.0000000000000000e-04   1.0000000000000002e-04   2.5555361387838643e-01   3.0845978959121073e-01   5.5091775265812548e-01   1.0000000000000000e+00   1.0000000000000002e+00   5.8582785898314349e-01   4.1427214101685650e-01   1.0000000000000000e-04   1.0000000000000002e-04   1.0000000000000002e-04   1.0000000000000000e-04   1.0000000000000002e-04   1.0000000000000000e-04   1.0000000000000002e-04   1.0000000000000000e-04   1.0000000000000002e-04   1.0000000000000002e-04   1.0000000000000000e-04   1.0000000000000002e-04   1.0000000000000000e-04   1.0000000000000002e-04   1.0000000000000002e-04   1.0000000000000000e-04   1.0000000000000002e-04   1.0000000000000000e-04   1.0000000000000002e-04   1.0000000000000002e-04   1.0000000000000000e-04   1.0000000000000002e-04   1.0000000000000000e-04   1.0000000000000002e-04   1.0000000000000002e-04   1.0000000000000000e-04   1.0000000000000002e-04   1.0000000000000000e-04   1.0000000000000002e-04   1.0000000000000002e-04   1.0000000000000000e-04   1.0000000000000002e-04   1.0000000000000000e-04   1.0000000000000002e-04   3.0845978959121156e-01   5.8582785898314094e-01   1.0000000000000000e+00   1.0000000000000000e+00   7.5002500000000016e-01   5.0004999999999988e-01   1.4653196474578559e-01   9.9999999999999991e-05   9.9999999999999991e-05   1.0000000000000000e-04   9.9999999999999991e-05   9.9999999999999991e-05   1.0000000000000000e-04   1.0000000000000002e-04   1.0000000000000000e-04   1.0000000000000002e-04   1.0000000000000000e-04   1.0000000000000000e-04   1.0000000000000002e-04   1.0000000000000002e-04   1.0000000000000002e-04   9.9999999999999991e-05   1.0000000000000002e-04   1.0000000000000000e-04   1.0000000000000000e-04   9.9999999999999991e-05   9.9999999999999991e-05   9.9999999999999991e-05   1.0000000000000002e-04   1.0000000000000000e-04   1.0000000000000000e-04   9.9999999999999991e-05   9.9999999999999991e-05   1.0000000000000002e-04   1.0000000000000000e-04   1.0000000000000000e-04   9.9999999999999991e-05   9.9999999999999991e-05   1.0000000000000002e-04   1.7165571796628443e-01   3.2849428203371595e-01   5.7326598237289295e-01   1.0000000000000000e+00   1.0000000000000002e+00   6.0359303525421570e-01   3.9650696474578456e-01   9.9999999999999991e-05   1.0000000000000002e-04   1.0000000000000000e-04   9.9999999999999991e-05   1.0000000000000000e-04   9.9999999999999991e-05   1.0000000000000000e-04   9.9999999999999991e-05   1.0000000000000002e-04   1.0000000000000000e-04   9.9999999999999991e-05   1.0000000000000000e-04   9.9999999999999991e-05   1.0000000000000002e-04   1.0000000000000000e-04   9.9999999999999991e-05   1.0000000000000000e-04   9.9999999999999991e-05   1.0000000000000002e-04   1.0000000000000000e-04   9.9999999999999991e-05   1.0000000000000000e-04   9.9999999999999991e-05   1.0000000000000002e-04   1.0000000000000000e-04   9.9999999999999991e-05   1.0000000000000000e-04   9.9999999999999991e-05   1.0000000000000002e-04   1.0000000000000000e-04   9.9999999999999991e-05   1.4653196474578586e-01   2.0718607050842863e-01   3.9650696474578567e-01   5.3558035254214531e-01   7.5002499999999928e-01   1.0000000000000000e+00   1.0000000000000000e+00   8.5356803525421454e-01   6.4648196474578568e-01   3.5361803525421459e-01   1.4653196474578559e-01   1.0000000000000002e-04   1.0000000000000000e-04   9.9999999999999991e-05   1.0000000000000002e-04   1.0000000000000000e-04   9.9999999999999991e-05   1.0000000000000000e-04   9.9999999999999991e-05   9.9999999999999991e-05   1.0000000000000000e-04   9.9999999999999991e-05   1.0000000000000000e-04   9.9999999999999991e-05   1.0000000000000000e-04   1.0000000000000002e-04   1.0000000000000002e-04   1.0000000000000002e-04   1.0000000000000002e-04   1.0000000000000002e-04   1.0000000000000002e-04   1.0000000000000002e-04   1.0000000000000002e-04   1.0000000000000002e-04   1.0000000000000002e-04   1.0000000000000002e-04   1.0000000000000002e-04   1.0000000000000002e-04   1.0000000000000002e-04   1.0000000000000002e-04   1.0000000000000002e-04   1.0000000000000002e-04   1.7165571796628443e-01   3.2849428203371589e-01   5.7326598237289272e-01   1.0000000000000002e+00   1.0000000000000000e+00   6.0359303525421559e-01   3.9650696474578451e-01   1.0000000000000000e-04   1.0000000000000000e-04   9.9999999999999991e-05   1.0000000000000002e-04   9.9999999999999978e-05   1.0000000000000002e-04   9.9999999999999978e-05   1.0000000000000000e-04   1.0000000000000000e-04   9.9999999999999991e-05   1.0000000000000002e-04   9.9999999999999978e-05   1.0000000000000000e-04   1.0000000000000000e-04   9.9999999999999991e-05   1.0000000000000002e-04   9.9999999999999978e-05   1.0000000000000000e-04   1.0000000000000000e-04   9.9999999999999991e-05   1.0000000000000002e-04   9.9999999999999978e-05   1.0000000000000000e-04   1.0000000000000000e-04   9.9999999999999991e-05   1.0000000000000002e-04   9.9999999999999978e-05   1.0000000000000000e-04   1.4653196474578559e-01   2.0718607050842930e-01   3.9650696474578562e-01   5.0005000000000044e-01   5.8582785898314171e-01   6.0359303525421426e-01   7.9291392949157125e-01   8.5356803525421421e-01   1.0000000000000000e+00   1.0000000000000000e+00   1.0000000000000000e+00   8.5356803525421443e-01   6.4648196474578556e-01   5.0004999999999988e-01   3.2849428203371545e-01   3.9650696474578551e-01   2.0718607050842880e-01   1.2140821152528662e-01   1.0000000000000000e-04   9.9999999999999991e-05   9.9999999999999991e-05   1.0000000000000002e-04   1.0000000000000000e-04   9.9999999999999991e-05   1.0000000000000002e-04   1.0000000000000002e-04   1.0000000000000002e-04   9.9999999999999991e-05   1.0000000000000002e-04   1.0000000000000000e-04   1.0000000000000000e-04   1.0000000000000002e-04   9.9999999999999991e-05   9.9999999999999991e-05   1.0000000000000002e-04   1.0000000000000000e-04   1.0000000000000000e-04   1.0000000000000002e-04   9.9999999999999991e-05   1.0000000000000002e-04   1.0000000000000000e-04   1.0000000000000000e-04   1.0000000000000002e-04   9.9999999999999991e-05   1.0000000000000002e-04   1.7165571796628443e-01   3.2849428203371595e-01   5.7326598237289295e-01   1.0000000000000000e+00   1.0000000000000002e+00   6.0359303525421570e-01   3.9650696474578456e-01   9.9999999999999991e-05   1.0000000000000002e-04   1.0000000000000002e-04   1.0000000000000000e-04   1.0000000000000000e-04   1.0000000000000000e-04   1.0000000000000000e-04   9.9999999999999991e-05   1.0000000000000002e-04   1.0000000000000002e-04   1.0000000000000000e-04   1.0000000000000000e-04   9.9999999999999991e-05   1.0000000000000002e-04   1.0000000000000002e-04   1.0000000000000000e-04   1.0000000000000000e-04   9.9999999999999991e-05   1.0000000000000002e-04   1.0000000000000002e-04   1.0000000000000000e-04   1.0000000000000000e-04   9.9999999999999991e-05   1.0000000000000002e-04   1.2140821152528695e-01   2.5007499999999960e-01   3.9650696474578545e-01   5.0004999999999955e-01   5.0004999999999988e-01   4.1427214101685839e-01   6.0359303525421437e-01   7.5002500000000039e-01   8.7869178847471296e-01   1.0000000000000002e+00   1.0000000000000000e+00   1.0000000000000000e+00   1.0000000000000000e+00   1.0000000000000000e+00   1.0000000000000000e+00   1.0000000000000002e+00   8.5356803525421465e-01   7.5002500000000005e-01   6.7160571796628465e-01   6.0359303525421448e-01   5.8582785898314216e-01   4.1427214101685794e-01   3.9650696474578567e-01   2.8040205288132170e-01   3.2849428203371556e-01   2.0718607050842885e-01   1.0364303525421446e-01   1.0000000000000000e-04   9.9999999999999991e-05   1.0000000000000000e-04   9.9999999999999991e-05   1.0000000000000000e-04   1.0000000000000002e-04   1.0000000000000002e-04   1.0000000000000002e-04   1.0000000000000002e-04   1.0000000000000002e-04   1.0000000000000002e-04   1.0000000000000002e-04   1.0000000000000002e-04   1.0000000000000002e-04   1.0000000000000002e-04   1.0000000000000002e-04   1.0000000000000002e-04   1.0000000000000002e-04   1.0000000000000002e-04   1.0000000000000002e-04   1.0000000000000002e-04   1.0000000000000002e-04   1.7165571796628443e-01   3.2849428203371589e-01   5.7326598237289272e-01   1.0000000000000002e+00   1.0000000000000000e+00   6.0359303525421559e-01   3.9650696474578451e-01   1.0000000000000000e-04   1.0000000000000000e-04   9.9999999999999991e-05   1.0000000000000002e-04   9.9999999999999978e-05   1.0000000000000002e-04   9.9999999999999978e-05   1.0000000000000000e-04   1.0000000000000000e-04   9.9999999999999991e-05   1.0000000000000002e-04   9.9999999999999978e-05   1.0000000000000000e-04   1.0000000000000000e-04   9.9999999999999991e-05   1.0000000000000002e-04   9.9999999999999978e-05   1.0000000000000000e-04   1.0000000000000000e-04   9.9999999999999991e-05   1.4653196474578528e-01   2.5007500000000032e-01   3.2849428203371578e-01   3.9650696474578584e-01   4.1427214101685844e-01   5.0004999999999966e-01   6.0359303525421448e-01   6.7160571796628432e-01   7.5002499999999972e-01   8.7869178847471352e-01   1.0000000000000002e+00   9.9999999999999989e-01   1.0000000000000000e+00   9.9999999999999989e-01   9.9999999999999989e-01   1.0000000000000002e+00   1.0000000000000000e+00   1.0000000000000000e+00   1.0000000000000002e+00   1.0000000000000000e+00   1.0000000000000000e+00   1.0000000000000000e+00   1.0000000000000000e+00   1.0000000000000002e+00   8.9645696474578562e-01   8.2324098237289278e-01   6.7160571796628443e-01   7.5550361387838616e-01   5.7326598237289261e-01   6.4648196474578556e-01   5.6391340346959651e-01   3.2329098237289278e-01   2.1814329826520165e-01   1.2782680693919321e-01   1.4653196474578556e-01   1.0000000000000002e-04   1.0000000000000000e-04   1.0000000000000002e-04   1.0000000000000002e-04   1.0000000000000000e-04   1.0000000000000000e-04   1.0000000000000000e-04   1.0000000000000000e-04   1.0000000000000002e-04   1.0000000000000002e-04   1.0000000000000000e-04   1.0000000000000000e-04   1.0000000000000000e-04   1.0000000000000002e-04   1.0000000000000002e-04   1.0000000000000000e-04   1.0000000000000000e-04   1.7742655576616408e-04   1.4712167247312238e-01   2.8455877099489463e-01   6.2824343040017383e-01   9.9999999999999989e-01   1.0000000000000002e+00   7.9291392949157169e-01   5.8582785898314127e-01   1.0364303525421470e-01   1.0000000000000002e-04   1.0000000000000002e-04   1.0000000000000000e-04   1.0000000000000002e-04   1.0000000000000000e-04   1.0000000000000002e-04   9.9999999999999991e-05   1.0000000000000002e-04   1.0000000000000002e-04   1.0000000000000000e-04   1.0000000000000002e-04   9.9999999999999991e-05   1.0000000000000002e-04   1.0000000000000002e-04   1.0000000000000000e-04   1.0000000000000002e-04   1.4653196474578553e-01   1.7165571796628476e-01   2.5007500000000027e-01   4.6451964745785490e-01   5.8582785898314249e-01   7.1969794711867818e-01   6.7160571796628443e-01   8.2324098237289300e-01   8.7869178847471319e-01   1.0000000000000000e+00   1.0000000000000000e+00   1.0000000000000000e+00   1.0000000000000002e+00   1.0000000000000000e+00   1.0000000000000000e+00   1.0000000000000000e+00   1.0000000000000000e+00   1.0000000000000002e+00   7.0713607050842930e-01   6.1681957918242014e-01   1.0000000000000000e+00   1.0000000000000000e+00   1.0000000000000000e+00   1.0000000000000000e+00   1.0000000000000000e+00   1.0000000000000000e+00   1.0000000000000000e+00   1.0000000000000002e+00   9.9999999999999989e-01   1.0000000000000000e+00   1.0000000000000002e+00   1.0000000000000000e+00   8.7869178847471330e-01   6.7680901762710755e-01   4.1427214101685783e-01   5.0004999999999999e-01   4.2683401762710721e-01   2.0718607050842880e-01   1.2140821152528662e-01   1.0000000000000002e-04   9.9999999999999991e-05   1.0000000000000005e-04   1.0000000000000002e-04   1.0000000000000002e-04   1.0000000000000002e-04   1.0000000000000002e-04   9.9999999999999991e-05   1.0000000000000005e-04   1.0000000000000002e-04   1.0000000000000002e-04   1.0000000000000002e-04   9.9999999999999991e-05   1.0000000000000005e-04   1.0000000000000002e-04   1.0000000000000002e-04   1.0504911604090283e-03   1.7516491653388616e-01   3.3072643073701807e-01   5.7637076839378676e-01   1.0000000000000000e+00   9.9999999999999989e-01   8.5356803525421476e-01   5.0004999999999900e-01   2.0718607050842969e-01   1.0000000000000000e-04   9.9999999999999991e-05   9.9999999999999991e-05   1.0000000000000000e-04   9.9999999999999991e-05   1.0000000000000000e-04   9.9999999999999991e-05   1.0000000000000000e-04   9.9999999999999991e-05   9.9999999999999991e-05   1.0000000000000000e-04   9.9999999999999991e-05   1.0000000000000000e-04   9.9999999999999991e-05   9.9999999999999991e-05   1.4653196474578586e-01   2.0718607050842869e-01   3.9650696474578573e-01   4.1427214101685839e-01   6.4648196474578479e-01   8.5356803525421476e-01   1.0000000000000000e+00   1.0000000000000000e+00   1.0000000000000000e+00   1.0000000000000000e+00   1.0000000000000000e+00   1.0000000000000000e+00   1.0000000000000000e+00   1.0000000000000000e+00   1.0000000000000000e+00   1.0000000000000000e+00   1.0000000000000000e+00   1.0000000000000000e+00   8.7869178847471308e-01   6.4648196474578634e-01   5.8582785898314216e-01   6.9164021040878954e-01   6.7160571796628454e-01   7.9291392949157091e-01   8.7869178847471341e-01   9.9999999999999978e-01   1.0000000000000000e+00   1.0000000000000000e+00   9.9999999999999989e-01   1.0000000000000000e+00   1.0000000000000000e+00   1.0000000000000000e+00   1.0000000000000000e+00   9.9999999999999989e-01   8.7227319306080675e-01   7.5002500000000005e-01   7.1809329826520163e-01   5.0005000000000011e-01   5.0005000000000011e-01   5.0005000000000022e-01   2.8040205288132186e-01   2.8040205288132186e-01   1.7685901762710726e-01   1.0364303525421452e-01   9.9999999999999991e-05   9.9999999999999991e-05   1.0000000000000000e-04   1.0000000000000003e-04   1.0000000000000002e-04   1.0000000000000000e-04   9.9999999999999991e-05   1.0000000000000000e-04   1.0000000000000003e-04   1.0000000000000002e-04   1.0000000000000000e-04   9.9999999999999991e-05   3.8784450585376017e-03   1.6709003245019921e-01   2.9366900760078496e-01   6.4566104044257266e-01   1.0000000000000000e+00   9.9999999999999989e-01   1.0000000000000000e+00   5.0004999999999922e-01   2.8040205288132269e-01   1.0000000000000002e-04   9.9999999999999991e-05   1.0000000000000002e-04   1.0000000000000002e-04   1.0000000000000002e-04   1.0000000000000002e-04   9.9999999999999991e-05   1.0000000000000002e-04   9.9999999999999991e-05   1.0000000000000002e-04   1.0000000000000002e-04   1.0364303525421431e-01   2.0718607050842908e-01   2.8040205288132197e-01   3.2849428203371561e-01   4.1427214101685828e-01   5.0004999999999955e-01   5.0004999999999977e-01   6.7680901762710743e-01   7.0713607050842875e-01   1.0000000000000000e+00   9.9999999999999989e-01   1.0000000000000000e+00   9.9999999999999989e-01   1.0000000000000000e+00   1.0000000000000000e+00   9.9999999999999989e-01   1.0000000000000000e+00   9.9999999999999989e-01   1.0000000000000000e+00   8.7869178847471319e-01   8.2324098237289278e-01   6.7160571796628443e-01   6.4648196474578490e-01   4.6451964745785618e-01   4.3618659653040354e-01   3.0845978959121045e-01   3.2849428203371567e-01   4.1427214101685794e-01   4.1427214101685783e-01   6.2135821152528692e-01   7.5002500000000016e-01   1.0000000000000002e+00   1.0000000000000000e+00   1.0000000000000000e+00   1.0000000000000002e+00   1.0000000000000000e+00   1.0000000000000000e+00   9.9999999999999978e-01   1.0000000000000000e+00   1.0000000000000000e+00   1.0000000000000000e+00   1.0000000000000002e+00   8.9645696474578540e-01   8.2324098237289267e-01   7.1969794711867807e-01   5.7326598237289261e-01   6.4648196474578523e-01   5.4293892949157097e-01   2.9296392949157091e-01   1.7165571796628437e-01   1.4653196474578550e-01   1.4653196474578561e-01   1.0000000000000000e-04   1.0000000000000002e-04   9.9999999999999991e-05   1.0000000000000002e-04   9.9999999999999991e-05   1.0000000000000000e-04   1.0000000000000002e-04   9.9999999999999991e-05   2.5722510217323580e-02   2.0099230480195260e-01   4.2142721274223405e-01   6.7528040598106220e-01   9.9999999999999989e-01   1.0000000000000002e+00   1.0000000000000000e+00   6.7160571796628354e-01   2.8040205288132275e-01   1.0000000000000000e-04   1.0000000000000000e-04   1.0000000000000000e-04   1.0000000000000000e-04   1.0000000000000000e-04   1.0000000000000000e-04   1.0000000000000000e-04   1.0000000000000000e-04   1.4653196474578553e-01   1.7165571796628440e-01   2.9296392949157130e-01   5.4293892949157008e-01   5.8582785898314216e-01   5.7326598237289295e-01   6.7160571796628443e-01   7.9291392949157136e-01   8.9645696474578540e-01   9.9999999999999978e-01   1.0000000000000000e+00   1.0000000000000000e+00   1.0000000000000000e+00   1.0000000000000000e+00   9.9999999999999978e-01   1.0000000000000000e+00   1.0000000000000000e+00   1.0000000000000000e+00   1.0000000000000000e+00   9.9999999999999978e-01   7.5002499999999983e-01   6.2135821152528714e-01   4.1427214101685750e-01   3.5361803525421526e-01   3.2849428203371561e-01   1.7685901762710718e-01   1.2140821152528693e-01   9.9999999999999991e-05   1.0000000000000000e-04   1.0000000000000000e-04   1.4653196474578559e-01   2.5007500000000010e-01   5.0005000000000011e-01   7.0713607050842886e-01   8.5356803525421443e-01   1.0000000000000002e+00   9.9999999999999989e-01   1.0000000000000000e+00   1.0000000000000002e+00   1.0000000000000000e+00   1.0000000000000000e+00   1.0000000000000002e+00   1.0000000000000000e+00   1.0000000000000002e+00   1.0000000000000000e+00   1.0000000000000000e+00   1.0000000000000002e+00   1.0000000000000000e+00   1.0000000000000000e+00   8.7869178847471330e-01   7.0713607050842875e-01   5.0004999999999999e-01   3.9650696474578551e-01   3.2849428203371556e-01   2.0718607050842905e-01   1.2140821152528650e-01   1.0000000000000002e-04   1.0000000000000002e-04   1.0000000000000002e-04   9.9999999999999991e-05   1.0000000000000005e-04   1.0000000000000002e-04   1.0000000000000002e-04   6.4770450494083878e-02   3.1764892428007108e-01   4.0886261118198358e-01   6.9787897862560910e-01   1.0000000000000000e+00   9.9999999999999989e-01   1.0000000000000000e+00   6.0359303525421337e-01   3.2849428203371661e-01   1.0000000000000000e-04   9.9999999999999991e-05   9.9999999999999991e-05   1.0000000000000000e-04   9.9999999999999991e-05   1.0000000000000000e-04   9.9999999999999991e-05   1.4653196474578556e-01   2.0718607050842924e-01   3.9650696474578551e-01   5.0005000000000033e-01   7.0713607050842797e-01   8.5356803525421454e-01   1.0000000000000000e+00   1.0000000000000000e+00   1.0000000000000000e+00   1.0000000000000000e+00   1.0000000000000000e+00   1.0000000000000000e+00   1.0000000000000000e+00   1.0000000000000000e+00   1.0000000000000000e+00   1.0000000000000000e+00   1.0000000000000000e+00   1.0000000000000000e+00   1.0000000000000000e+00   1.0000000000000000e+00   8.5356803525421454e-01   7.0713607050842808e-01   5.0005000000000055e-01   2.5007499999999977e-01   1.2140821152528694e-01   1.00000000