<?xml version="1.0"?>
<VTKFile type="UnstructuredGrid"  version="0.1"  >
<UnstructuredGrid>
<Piece  NumberOfPoints="3321" NumberOfCells="3200">
<Points>
<DataArray  type="Float64"  NumberOfComponents="3"  format="ascii">0 0 0  2 0 0  4 0 0  6 0 0  8 0 0  10 0 0  12 0 0  14 0 0  16 0 0  18 0 0  20 0 0  22 0 0  24 0 0  26 0 0  28 0 0  30 0 0  32 0 0  34 0 0  36 0 0  38 0 0  40 0 0  42 0 0  44 0 0  46 0 0  48 0 0  50 0 0  52 0 0  54 0 0  56 0 0  58 0 0  60 0 0  62 0 0  64 0 0  66 0 0  68 0 0  70 0 0  72 0 0  74 0 0  76 0 0  78 0 0  80 0 0  82 0 0  84 0 0  86 0 0  88 0 0  90 0 0  92 0 0  94 0 0  96 0 0  98 0 0  100 0 0  102 0 0  104 0 0  106 0 0  108 0 0  110 0 0  112 0 0  114 0 0  116 0 0  118 0 0  120 0 0  122 0 0  124 0 0  126 0 0  128 0 0  130 0 0  132 0 0  134 0 0  136 0 0  138 0 0  140 0 0  142 0 0  144 0 0  146 0 0  148 0 0  150 0 0  152 0 0  154 0 0  156 0 0  158 0 0  160 0 0  0 2 0  2 2 0  4 2 0  6 2 0  8 2 0  10 2 0  12 2 0  14 2 0  16 2 0  18 2 0  20 2 0  22 2 0  24 2 0  26 2 0  28 2 0  30 2 0  32 2 0  34 2 0  36 2 0  38 2 0  40 2 0  42 2 0  44 2 0  46 2 0  48 2 0  50 2 0  52 2 0  54 2 0  56 2 0  58 2 0  60 2 0  62 2 0  64 2 0  66 2 0  68 2 0  70 2 0  72 2 0  74 2 0  76 2 0  78 2 0  80 2 0  82 2 0  84 2 0  86 2 0  88 2 0  90 2 0  92 2 0  94 2 0  96 2 0  98 2 0  100 2 0  102 2 0  104 2 0  106 2 0  108 2 0  110 2 0  112 2 0  114 2 0  116 2 0  118 2 0  120 2 0  122 2 0  124 2 0  126 2 0  128 2 0  130 2 0  132 2 0  134 2 0  136 2 0  138 2 0  140 2 0  142 2 0  144 2 0  146 2 0  148 2 0  150 2 0  152 2 0  154 2 0  156 2 0  158 2 0  160 2 0  0 4 0  2 4 0  4 4 0  6 4 0  8 4 0  10 4 0  12 4 0  14 4 0  16 4 0  18 4 0  20 4 0  22 4 0  24 4 0  26 4 0  28 4 0  30 4 0  32 4 0  34 4 0  36 4 0  38 4 0  40 4 0  42 4 0  44 4 0  46 4 0  48 4 0  50 4 0  52 4 0  54 4 0  56 4 0  58 4 0  60 4 0  62 4 0  64 4 0  66 4 0  68 4 0  70 4 0  72 4 0  74 4 0  76 4 0  78 4 0  80 4 0  82 4 0  84 4 0  86 4 0  88 4 0  90 4 0  92 4 0  94 4 0  96 4 0  98 4 0  100 4 0  102 4 0  104 4 0  106 4 0  108 4 0  110 4 0  112 4 0  114 4 0  116 4 0  118 4 0  120 4 0  122 4 0  124 4 0  126 4 0  128 4 0  130 4 0  132 4 0  134 4 0  136 4 0  138 4 0  140 4 0  142 4 0  144 4 0  146 4 0  148 4 0  150 4 0  152 4 0  154 4 0  156 4 0  158 4 0  160 4 0  0 6 0  2 6 0  4 6 0  6 6 0  8 6 0  10 6 0  12 6 0  14 6 0  16 6 0  18 6 0  20 6 0  22 6 0  24 6 0  26 6 0  28 6 0  30 6 0  32 6 0  34 6 0  36 6 0  38 6 0  40 6 0  42 6 0  44 6 0  46 6 0  48 6 0  50 6 0  52 6 0  54 6 0  56 6 0  58 6 0  60 6 0  62 6 0  64 6 0  66 6 0  68 6 0  70 6 0  72 6 0  74 6 0  76 6 0  78 6 0  80 6 0  82 6 0  84 6 0  86 6 0  88 6 0  90 6 0  92 6 0  94 6 0  96 6 0  98 6 0  100 6 0  102 6 0  104 6 0  106 6 0  108 6 0  110 6 0  112 6 0  114 6 0  116 6 0  118 6 0  120 6 0  122 6 0  124 6 0  126 6 0  128 6 0  130 6 0  132 6 0  134 6 0  136 6 0  138 6 0  140 6 0  142 6 0  144 6 0  146 6 0  148 6 0  150 6 0  152 6 0  154 6 0  156 6 0  158 6 0  160 6 0  0 8 0  2 8 0  4 8 0  6 8 0  8 8 0  10 8 0  12 8 0  14 8 0  16 8 0  18 8 0  20 8 0  22 8 0  24 8 0  26 8 0  28 8 0  30 8 0  32 8 0  34 8 0  36 8 0  38 8 0  40 8 0  42 8 0  44 8 0  46 8 0  48 8 0  50 8 0  52 8 0  54 8 0  56 8 0  58 8 0  60 8 0  62 8 0  64 8 0  66 8 0  68 8 0  70 8 0  72 8 0  74 8 0  76 8 0  78 8 0  80 8 0  82 8 0  84 8 0  86 8 0  88 8 0  90 8 0  92 8 0  94 8 0  96 8 0  98 8 0  100 8 0  102 8 0  104 8 0  106 8 0  108 8 0  110 8 0  112 8 0  114 8 0  116 8 0  118 8 0  120 8 0  122 8 0  124 8 0  126 8 0  128 8 0  130 8 0  132 8 0  134 8 0  136 8 0  138 8 0  140 8 0  142 8 0  144 8 0  146 8 0  148 8 0  150 8 0  152 8 0  154 8 0  156 8 0  158 8 0  160 8 0  0 10 0  2 10 0  4 10 0  6 10 0  8 10 0  10 10 0  12 10 0  14 10 0  16 10 0  18 10 0  20 10 0  22 10 0  24 10 0  26 10 0  28 10 0  30 10 0  32 10 0  34 10 0  36 10 0  38 10 0  40 10 0  42 10 0  44 10 0  46 10 0  48 10 0  50 10 0  52 10 0  54 10 0  56 10 0  58 10 0  60 10 0  62 10 0  64 10 0  66 10 0  68 10 0  70 10 0  72 10 0  74 10 0  76 10 0  78 10 0  80 10 0  82 10 0  84 10 0  86 10 0  88 10 0  90 10 0  92 10 0  94 10 0  96 10 0  98 10 0  100 10 0  102 10 0  104 10 0  106 10 0  108 10 0  110 10 0  112 10 0  114 10 0  116 10 0  118 10 0  120 10 0  122 10 0  124 10 0  126 10 0  128 10 0  130 10 0  132 10 0  134 10 0  136 10 0  138 10 0  140 10 0  142 10 0  144 10 0  146 10 0  148 10 0  150 10 0  152 10 0  154 10 0  156 10 0  158 10 0  160 10 0  0 12 0  2 12 0  4 12 0  6 12 0  8 12 0  10 12 0  12 12 0  14 12 0  16 12 0  18 12 0  20 12 0  22 12 0  24 12 0  26 12 0  28 12 0  30 12 0  32 12 0  34 12 0  36 12 0  38 12 0  40 12 0  42 12 0  44 12 0  46 12 0  48 12 0  50 12 0  52 12 0  54 12 0  56 12 0  58 12 0  60 12 0  62 12 0  64 12 0  66 12 0  68 12 0  70 12 0  72 12 0  74 12 0  76 12 0  78 12 0  80 12 0  82 12 0  84 12 0  86 12 0  88 12 0  90 12 0  92 12 0  94 12 0  96 12 0  98 12 0  100 12 0  102 12 0  104 12 0  106 12 0  108 12 0  110 12 0  112 12 0  114 12 0  116 12 0  118 12 0  120 12 0  122 12 0  124 12 0  126 12 0  128 12 0  130 12 0  132 12 0  134 12 0  136 12 0  138 12 0  140 12 0  142 12 0  144 12 0  146 12 0  148 12 0  150 12 0  152 12 0  154 12 0  156 12 0  158 12 0  160 12 0  0 14 0  2 14 0  4 14 0  6 14 0  8 14 0  10 14 0  12 14 0  14 14 0  16 14 0  18 14 0  20 14 0  22 14 0  24 14 0  26 14 0  28 14 0  30 14 0  32 14 0  34 14 0  36 14 0  38 14 0  40 14 0  42 14 0  44 14 0  46 14 0  48 14 0  50 14 0  52 14 0  54 14 0  56 14 0  58 14 0  60 14 0  62 14 0  64 14 0  66 14 0  68 14 0  70 14 0  72 14 0  74 14 0  76 14 0  78 14 0  80 14 0  82 14 0  84 14 0  86 14 0  88 14 0  90 14 0  92 14 0  94 14 0  96 14 0  98 14 0  100 14 0  102 14 0  104 14 0  106 14 0  108 14 0  110 14 0  112 14 0  114 14 0  116 14 0  118 14 0  120 14 0  122 14 0  124 14 0  126 14 0  128 14 0  130 14 0  132 14 0  134 14 0  136 14 0  138 14 0  140 14 0  142 14 0  144 14 0  146 14 0  148 14 0  150 14 0  152 14 0  154 14 0  156 14 0  158 14 0  160 14 0  0 16 0  2 16 0  4 16 0  6 16 0  8 16 0  10 16 0  12 16 0  14 16 0  16 16 0  18 16 0  20 16 0  22 16 0  24 16 0  26 16 0  28 16 0  30 16 0  32 16 0  34 16 0  36 16 0  38 16 0  40 16 0  42 16 0  44 16 0  46 16 0  48 16 0  50 16 0  52 16 0  54 16 0  56 16 0  58 16 0  60 16 0  62 16 0  64 16 0  66 16 0  68 16 0  70 16 0  72 16 0  74 16 0  76 16 0  78 16 0  80 16 0  82 16 0  84 16 0  86 16 0  88 16 0  90 16 0  92 16 0  94 16 0  96 16 0  98 16 0  100 16 0  102 16 0  104 16 0  106 16 0  108 16 0  110 16 0  112 16 0  114 16 0  116 16 0  118 16 0  120 16 0  122 16 0  124 16 0  126 16 0  128 16 0  130 16 0  132 16 0  134 16 0  136 16 0  138 16 0  140 16 0  142 16 0  144 16 0  146 16 0  148 16 0  150 16 0  152 16 0  154 16 0  156 16 0  158 16 0  160 16 0  0 18 0  2 18 0  4 18 0  6 18 0  8 18 0  10 18 0  12 18 0  14 18 0  16 18 0  18 18 0  20 18 0  22 18 0  24 18 0  26 18 0  28 18 0  30 18 0  32 18 0  34 18 0  36 18 0  38 18 0  40 18 0  42 18 0  44 18 0  46 18 0  48 18 0  50 18 0  52 18 0  54 18 0  56 18 0  58 18 0  60 18 0  62 18 0  64 18 0  66 18 0  68 18 0  70 18 0  72 18 0  74 18 0  76 18 0  78 18 0  80 18 0  82 18 0  84 18 0  86 18 0  88 18 0  90 18 0  92 18 0  94 18 0  96 18 0  98 18 0  100 18 0  102 18 0  104 18 0  106 18 0  108 18 0  110 18 0  112 18 0  114 18 0  116 18 0  118 18 0  120 18 0  122 18 0  124 18 0  126 18 0  128 18 0  130 18 0  132 18 0  134 18 0  136 18 0  138 18 0  140 18 0  142 18 0  144 18 0  146 18 0  148 18 0  150 18 0  152 18 0  154 18 0  156 18 0  158 18 0  160 18 0  0 20 0  2 20 0  4 20 0  6 20 0  8 20 0  10 20 0  12 20 0  14 20 0  16 20 0  18 20 0  20 20 0  22 20 0  24 20 0  26 20 0  28 20 0  30 20 0  32 20 0  34 20 0  36 20 0  38 20 0  40 20 0  42 20 0  44 20 0  46 20 0  48 20 0  50 20 0  52 20 0  54 20 0  56 20 0  58 20 0  60 20 0  62 20 0  64 20 0  66 20 0  68 20 0  70 20 0  72 20 0  74 20 0  76 20 0  78 20 0  80 20 0  82 20 0  84 20 0  86 20 0  88 20 0  90 20 0  92 20 0  94 20 0  96 20 0  98 20 0  100 20 0  102 20 0  104 20 0  106 20 0  108 20 0  110 20 0  112 20 0  114 20 0  116 20 0  118 20 0  120 20 0  122 20 0  124 20 0  126 20 0  128 20 0  130 20 0  132 20 0  134 20 0  136 20 0  138 20 0  140 20 0  142 20 0  144 20 0  146 20 0  148 20 0  150 20 0  152 20 0  154 20 0  156 20 0  158 20 0  160 20 0  0 22 0  2 22 0  4 22 0  6 22 0  8 22 0  10 22 0  12 22 0  14 22 0  16 22 0  18 22 0  20 22 0  22 22 0  24 22 0  26 22 0  28 22 0  30 22 0  32 22 0  34 22 0  36 22 0  38 22 0  40 22 0  42 22 0  44 22 0  46 22 0  48 22 0  50 22 0  52 22 0  54 22 0  56 22 0  58 22 0  60 22 0  62 22 0  64 22 0  66 22 0  68 22 0  70 22 0  72 22 0  74 22 0  76 22 0  78 22 0  80 22 0  82 22 0  84 22 0  86 22 0  88 22 0  90 22 0  92 22 0  94 22 0  96 22 0  98 22 0  100 22 0  102 22 0  104 22 0  106 22 0  108 22 0  110 22 0  112 22 0  114 22 0  116 22 0  118 22 0  120 22 0  122 22 0  124 22 0  126 22 0  128 22 0  130 22 0  132 22 0  134 22 0  136 22 0  138 22 0  140 22 0  142 22 0  144 22 0  146 22 0  148 22 0  150 22 0  152 22 0  154 22 0  156 22 0  158 22 0  160 22 0  0 24 0  2 24 0  4 24 0  6 24 0  8 24 0  10 24 0  12 24 0  14 24 0  16 24 0  18 24 0  20 24 0  22 24 0  24 24 0  26 24 0  28 24 0  30 24 0  32 24 0  34 24 0  36 24 0  38 24 0  40 24 0  42 24 0  44 24 0  46 24 0  48 24 0  50 24 0  52 24 0  54 24 0  56 24 0  58 24 0  60 24 0  62 24 0  64 24 0  66 24 0  68 24 0  70 24 0  72 24 0  74 24 0  76 24 0  78 24 0  80 24 0  82 24 0  84 24 0  86 24 0  88 24 0  90 24 0  92 24 0  94 24 0  96 24 0  98 24 0  100 24 0  102 24 0  104 24 0  106 24 0  108 24 0  110 24 0  112 24 0  114 24 0  116 24 0  118 24 0  120 24 0  122 24 0  124 24 0  126 24 0  128 24 0  130 24 0  132 24 0  134 24 0  136 24 0  138 24 0  140 24 0  142 24 0  144 24 0  146 24 0  148 24 0  150 24 0  152 24 0  154 24 0  156 24 0  158 24 0  160 24 0  0 26 0  2 26 0  4 26 0  6 26 0  8 26 0  10 26 0  12 26 0  14 26 0  16 26 0  18 26 0  20 26 0  22 26 0  24 26 0  26 26 0  28 26 0  30 26 0  32 26 0  34 26 0  36 26 0  38 26 0  40 26 0  42 26 0  44 26 0  46 26 0  48 26 0  50 26 0  52 26 0  54 26 0  56 26 0  58 26 0  60 26 0  62 26 0  64 26 0  66 26 0  68 26 0  70 26 0  72 26 0  74 26 0  76 26 0  78 26 0  80 26 0  82 26 
[...]
<PointData  Vectors="displacements"> 
<DataArray  type="Float64"  Name="displacements"  NumberOfComponents="3" format="ascii">0.0000000000000000e+00 0.0000000000000000e+00 0.0000000000000000e+00  -1.0503848903089244e+01 -9.5371033746677192e+00 0.0000000000000000e+00  -1.8033637151509623e+01 -1.5048622208897914e+01 0.0000000000000000e+00  -2.4542266610902953e+01 -1.8938564783705392e+01 0.0000000000000000e+00  -3.1301985564121168e+01 -2.2120178425870520e+01 0.0000000000000000e+00  -3.8540535957742293e+01 -2.6644816850311837e+01 0.0000000000000000e+00  -4.6129287941515742e+01 -3.2592204473965474e+01 0.0000000000000000e+00  -5.3113245657576542e+01 -3.8104808761570304e+01 0.0000000000000000e+00  -5.7891478651936104e+01 -4.2694990533136377e+01 0.0000000000000000e+00  -6.1919161818046661e+01 -4.7231208733856612e+01 0.0000000000000000e+00  -6.6814870749466237e+01 -5.2357580834279823e+01 0.0000000000000000e+00  -7.1968930253898222e+01 -5.7941477301983497e+01 0.0000000000000000e+00  -7.7834339595123183e+01 -6.3499790281149885e+01 0.0000000000000000e+00  -8.2746027109511957e+01 -6.8424135431851326e+01 0.0000000000000000e+00  -8.7533959516675154e+01 -7.3505126093625464e+01 0.0000000000000000e+00  -9.6873953260075538e+01 -8.1432225618460564e+01 0.0000000000000000e+00  -1.1595444327265068e+02 -8.9605987903232872e+01 0.0000000000000000e+00  -1.2679157388219079e+02 -9.5009239682371856e+01 0.0000000000000000e+00  -1.3175527745863894e+02 -1.0372052766650862e+02 0.0000000000000000e+00  -1.3545676470597738e+02 -1.1370533427012238e+02 0.0000000000000000e+00  -1.3845088713790275e+02 -1.2337084627693112e+02 0.0000000000000000e+00  -1.4130821400997252e+02 -1.3183445284581705e+02 0.0000000000000000e+00  -1.4481224695357412e+02 -1.3935838016544730e+02 0.0000000000000000e+00  -1.4877746107363356e+02 -1.4665681091905645e+02 0.0000000000000000e+00  -1.5324348244329661e+02 -1.5468622889143529e+02 0.0000000000000000e+00  -1.5965723485110971e+02 -1.6393306445144000e+02 0.0000000000000000e+00  -1.6635830715939514e+02 -1.7348466517693331e+02 0.0000000000000000e+00  -1.7122833224093930e+02 -1.8345757432136514e+02 0.0000000000000000e+00  -1.7488510232685977e+02 -1.9374282103002818e+02 0.0000000000000000e+00  -1.7863083088808253e+02 -2.0407626611560454e+02 0.0000000000000000e+00  -1.8364633996630837e+02 -2.1447037793563925e+02 0.0000000000000000e+00  -1.8796702935229305e+02 -2.2481034183425780e+02 0.0000000000000000e+00  -1.9112645293821524e+02 -2.3531284668391436e+02 0.0000000000000000e+00  -1.9439541113020306e+02 -2.4599650331986470e+02 0.0000000000000000e+00  -1.9923496195042316e+02 -2.5706116553161962e+02 0.0000000000000000e+00  -2.0521470283173090e+02 -2.6836204605614512e+02 0.0000000000000000e+00  -2.0908813208036349e+02 -2.8031049785738412e+02 0.0000000000000000e+00  -2.1192798962926878e+02 -2.9260484301061655e+02 0.0000000000000000e+00  -2.1412149316100627e+02 -3.0485397083458207e+02 0.0000000000000000e+00  -2.1589190267619819e+02 -3.1699997509825869e+02 0.0000000000000000e+00  -2.1813496687847521e+02 -3.2925172212348025e+02 0.0000000000000000e+00  -2.2176686032433011e+02 -3.4169417526777033e+02 0.0000000000000000e+00  -2.2512273597773628e+02 -3.5430061012145654e+02 0.0000000000000000e+00  -2.2820174855545221e+02 -3.6778196214962850e+02 0.0000000000000000e+00  -2.3169166633752084e+02 -3.8181408419493442e+02 0.0000000000000000e+00  -2.3420459468253225e+02 -3.9507628704236828e+02 0.0000000000000000e+00  -2.3678174707112456e+02 -4.0780827743045597e+02 0.0000000000000000e+00  -2.4208128114540048e+02 -4.2090269241102465e+02 0.0000000000000000e+00  -2.4856379890265507e+02 -4.3341361295936565e+02 0.0000000000000000e+00  -2.5270853203783770e+02 -4.4661115104616391e+02 0.0000000000000000e+00  -2.5577817940881096e+02 -4.6083237042514168e+02 0.0000000000000000e+00  -2.5833308884615809e+02 -4.7575545554472018e+02 0.0000000000000000e+00  -2.6040348632477725e+02 -4.9114409268451254e+02 0.0000000000000000e+00  -2.6247209854419214e+02 -5.0676600214183497e+02 0.0000000000000000e+00  -2.6554156519180339e+02 -5.2244502293546600e+02 0.0000000000000000e+00  -2.6900676049763729e+02 -5.3735716712187104e+02 0.0000000000000000e+00  -2.7114225764707368e+02 -5.5188932338513564e+02 0.0000000000000000e+00  -2.7259621879918365e+02 -5.6643474432648702e+02 0.0000000000000000e+00  -2.7401624565028698e+02 -5.8093407072417097e+02 0.0000000000000000e+00  -2.7561517243537941e+02 -5.9551622493166258e+02 0.0000000000000000e+00  -2.7736192724267738e+02 -6.1037934394119509e+02 0.0000000000000000e+00  -2.7946580978079203e+02 -6.2567545412088714e+02 0.0000000000000000e+00  -2.8120106039114012e+02 -6.4116405420895262e+02 0.0000000000000000e+00  -2.8239088007974050e+02 -6.5668660209924292e+02 0.0000000000000000e+00  -2.8356912615619950e+02 -6.7223334035047424e+02 0.0000000000000000e+00  -2.8483632056153766e+02 -6.8785553499234675e+02 0.0000000000000000e+00  -2.8586167775254057e+02 -7.0362330535072635e+02 0.0000000000000000e+00  -2.8669365803045116e+02 -7.1941815320384057e+02 0.0000000000000000e+00  -2.8742363570277575e+02 -7.3509257219232802e+02 0.0000000000000000e+00  -2.8799136113640452e+02 -7.5077320826042978e+02 0.0000000000000000e+00  -2.8857310324447764e+02 -7.6659401701121647e+02 0.0000000000000000e+00  -2.8897763291446802e+02 -7.8246457925701236e+02 0.0000000000000000e+00  -2.8924933295893686e+02 -7.9825361875874103e+02 0.0000000000000000e+00  -2.8941859032643640e+02 -8.1391472384475946e+02 0.0000000000000000e+00  -2.8953530660590076e+02 -8.2941374313663118e+02 0.0000000000000000e+00  -2.8962247025400853e+02 -8.4469407300411945e+02 0.0000000000000000e+00  -2.8972504995057614e+02 -8.5977960299200345e+02 0.0000000000000000e+00  -2.8980678039691259e+02 -8.7477813079750956e+02 0.0000000000000000e+00  -2.8984709551443876e+02 -8.8974276717190025e+02 0.0000000000000000e+00  -2.8985307620823141e+02 -9.0465946627343362e+02 0.0000000000000000e+00  -2.8984927339773679e+02 -9.1952784595993489e+02 0.0000000000000000e+00  0.0000000000000000e+00 0.0000000000000000e+00 0.0000000000000000e+00  -6.5650359721017644e+00 -5.9579375832333028e+00 0.0000000000000000e+00  -1.4497183943841549e+01 -1.2173312045369149e+01 0.0000000000000000e+00  -2.1752368014295001e+01 -1.6289355052006023e+01 0.0000000000000000e+00  -2.7423710286974067e+01 -1.9548769403274939e+01 0.0000000000000000e+00  -3.2814830285685666e+01 -2.3702465513434269e+01 0.0000000000000000e+00  -3.9755993389901093e+01 -2.9312960303365674e+01 0.0000000000000000e+00  -4.7479488139941516e+01 -3.5433173276955053e+01 0.0000000000000000e+00  -5.3300034235996691e+01 -4.0738624675470980e+01 0.0000000000000000e+00  -5.7494853179199794e+01 -4.5416358736624133e+01 0.0000000000000000e+00  -6.1748225443860129e+01 -5.0295448151533073e+01 0.0000000000000000e+00  -6.6822410775156030e+01 -5.5531316016389347e+01 0.0000000000000000e+00  -7.2876919078806182e+01 -6.1002896136040199e+01 0.0000000000000000e+00  -7.8622466170039189e+01 -6.6275346415921149e+01 0.0000000000000000e+00  -8.3858553181222220e+01 -7.0871638789400336e+01 0.0000000000000000e+00  -9.2596742606461959e+01 -7.6591617534791766e+01 0.0000000000000000e+00  -1.0727079865359950e+02 -8.4457443930785644e+01 0.0000000000000000e+00  -1.1650650375913897e+02 -9.2453841538055840e+01 0.0000000000000000e+00  -1.2123027035566929e+02 -1.0184349215568665e+02 0.0000000000000000e+00  -1.2512520326686698e+02 -1.1208918210332551e+02 0.0000000000000000e+00  -1.2937796799971943e+02 -1.2187289818516277e+02 0.0000000000000000e+00  -1.3354626605783312e+02 -1.3025497533051109e+02 0.0000000000000000e+00  -1.3778227862376269e+02 -1.3765255919547650e+02 0.0000000000000000e+00  -1.4163195100661059e+02 -1.4495885764298308e+02 0.0000000000000000e+00  -1.4554555956133458e+02 -1.5258831701681029e+02 0.0000000000000000e+00  -1.5090646562114367e+02 -1.6127735416049268e+02 0.0000000000000000e+00  -1.5648013094957693e+02 -1.7121339318265930e+02 0.0000000000000000e+00  -1.6086904407353006e+02 -1.8173160149859945e+02 0.0000000000000000e+00  -1.6469329224713405e+02 -1.9217575330454505e+02 0.0000000000000000e+00  -1.6861892813610831e+02 -2.0226050724827761e+02 0.0000000000000000e+00  -1.7313231250421327e+02 -2.1244880325007298e+02 0.0000000000000000e+00  -1.7741056073993687e+02 -2.2319165442634875e+02 0.0000000000000000e+00  -1.8080331790286525e+02 -2.3396567368752139e+02 0.0000000000000000e+00  -1.8418227069935202e+02 -2.4438768331961273e+02 0.0000000000000000e+00  -1.8847040134801767e+02 -2.5494319403903697e+02 0.0000000000000000e+00  -1.9284186159953731e+02 -2.6649743742376427e+02 0.0000000000000000e+00  -1.9650298454734491e+02 -2.7890111756172826e+02 0.0000000000000000e+00  -1.9944011066384195e+02 -2.9148589205466845e+02 0.0000000000000000e+00  -2.0189467855130763e+02 -3.0397755586860490e+02 0.0000000000000000e+00  -2.0393241478916264e+02 -3.1614091431333850e+02 0.0000000000000000e+00  -2.0627880644044626e+02 -3.2807132317976470e+02 0.0000000000000000e+00  -2.0942301170333701e+02 -3.4026935533979048e+02 0.0000000000000000e+00  -2.1226538275116806e+02 -3.5302381731981029e+02 0.0000000000000000e+00  -2.1488454758463411e+02 -3.6640291789843656e+02 0.0000000000000000e+00  -2.1830248058658782e+02 -3.8046130200932720e+02 0.0000000000000000e+00  -2.2159537388892352e+02 -3.9395812119922471e+02 0.0000000000000000e+00  -2.2487936056416407e+02 -4.0617578800414475e+02 0.0000000000000000e+00  -2.3030527304618957e+02 -4.1837845417701709e+02 0.0000000000000000e+00  -2.3547272815493537e+02 -4.3149245761609114e+02 0.0000000000000000e+00  -2.3867047894961453e+02 -4.4531429745576781e+02 0.0000000000000000e+00  -2.4103478417154440e+02 -4.5976288589292415e+02 0.0000000000000000e+00  -2.4308057871463231e+02 -4.7484150645066410e+02 0.0000000000000000e+00  -2.4505195448615575e+02 -4.9023153348085765e+02 0.0000000000000000e+00  -2.4749811055903427e+02 -5.0560774312137670e+02 0.0000000000000000e+00  -2.5099615408623487e+02 -5.2097187954314097e+02 0.0000000000000000e+00  -2.5441009373395522e+02 -5.3622353325074425e+02 0.0000000000000000e+00  -2.5655287025891664e+02 -5.5115505478302578e+02 0.0000000000000000e+00  -2.5815792028759739e+02 -5.6581453850782475e+02 0.0000000000000000e+00  -2.5967087285198130e+02 -5.8027635540654819e+02 0.0000000000000000e+00  -2.6117271848866011e+02 -5.9483637865850653e+02 0.0000000000000000e+00  -2.6260580184262608e+02 -6.0968196694916821e+02 0.0000000000000000e+00  -2.6406595777419653e+02 -6.2493077893715497e+02 0.0000000000000000e+00  -2.6562588798401356e+02 -6.4055748913167736e+02 0.0000000000000000e+00  -2.6690998760178815e+02 -6.5619439302873059e+02 0.0000000000000000e+00  -2.6802157463394843e+02 -6.7174507851378542e+02 0.0000000000000000e+00  -2.6908906383909800e+02 -6.8737723504013741e+02 0.0000000000000000e+00  -2.7009515695287951e+02 -7.0318998004473349e+02 0.0000000000000000e+00  -2.7106848118329373e+02 -7.1907081637759813e+02 0.0000000000000000e+00  -2.7181003858832884e+02 -7.3484028422831364e+02 0.0000000000000000e+00  -2.7230621101572740e+02 -7.5054461715373657e+02 0.0000000000000000e+00  -2.7277665543717836e+02 -7.6637008550299493e+02 0.0000000000000000e+00  -2.7323972193032853e+02 -7.8230846082712299e+02 0.0000000000000000e+00  -2.7360778898667201e+02 -7.9813714488468133e+02 0.0000000000000000e+00  -2.7392011695915471e+02 -8.1382297058253130e+02 0.0000000000000000e+00  -2.7422474208089778e+02 -8.2933231443923773e+02 0.0000000000000000e+00  -2.7453689402825273e+02 -8.4461977980813936e+02 0.0000000000000000e+00  -2.7476851436673184e+02 -8.5971841097800188e+02 0.0000000000000000e+00  -2.7489459990348320e+02 -8.7474735352372500e+02 0.0000000000000000e+00  -2.7495835906855393e+02 -8.8973735137133156e+02 0.0000000000000000e+00  -2.7498371511023697e+02 -9.0466641513224761e+02 0.0000000000000000e+00  -2.7498920277913675e+02 -9.1952383440802487e+02 0.0000000000000000e+00  0.0000000000000000e+00 0.0000000000000000e+00 0.0000000000000000e+00  -5.5571276703730819e+00 -4.1467187996569423e+00 0.0000000000000000e+00  -1.2740267387248768e+01 -9.5202906737758344e+00 0.0000000000000000e+00  -1.9641388752471688e+01 -1.4173595989896597e+01 0.0000000000000000e+00  -2.4098315677622750e+01 -1.7808701845334188e+01 0.0000000000000000e+00  -2.7813109643016908e+01 -2.1555164049392456e+01 0.0000000000000000e+00  -3.2879507899324445e+01 -2.6170133303467534e+01 0.0000000000000000e+00  -4.1023026653684923e+01 -3.2078953237607443e+01 0.0000000000000000e+00  -4.8602871432616269e+01 -3.8185623840078470e+01 0.0000000000000000e+00  -5.3499189325743437e+01 -4.3531834932313942e+01 0.0000000000000000e+00  -5.7887327194682726e+01 -4.8353416750762683e+01 0.0000000000000000e+00  -6.3135804462878141e+01 -5.3041594275619886e+01 0.0000000000000000e+00  -6.9351752106894381e+01 -5.8146649313606275e+01 0.0000000000000000e+00  -7.6202952905069296e+01 -6.3509675549254425e+01 0.0000000000000000e+00  -8.2176442599111851e+01 -6.8053417607030724e+01 0.0000000000000000e+00  -8.8740312468398272e+01 -7.3482033434950225e+01 0.0000000000000000e+00  -9.7875395883022151e+01 -8.1388093767264749e+01 0.0000000000000000e+00  -1.0524789379980990e+02 -9.0396169165034138e+01 0.0000000000000000e+00  -1.0919946050527027e+02 -9.9889772359485036e+01 0.0000000000000000e+00  -1.1323541799498602e+02 -1.0978711722623379e+02 0.0000000000000000e+00  -1.1960885341948425e+02 -1.1939112378411352e+02 0.0000000000000000e+00  -1.2621176048871234e+02 -1.2796286577778250e+02 0.0000000000000000e+00  -1.3116692322307830e+02 -1.3575331797837421e+02 0.0000000000000000e+00  -1.3515773241874032e+02 -1.4327950276110252e+02 0.0000000000000000e+00  -1.3886015575689538e+02 -1.5084929127929010e+02 0.0000000000000000e+00  -1.4249409047674840e+02 -1.5939973049319926e+02 0.0000000000000000e+00  -1.4650139879010251e+02 -1.6936746564078842e+02 0.0000000000000000e+00  -1.5053618107993807e+02 -1.7999997018420237e+02 0.0000000000000000e+00  -1.5474959945399169e+02 -1.9046342285103094e+02 0.0000000000000000e+00  -1.5891477341878061e+02 -2.0050957179074149e+02 0.0000000000000000e+00  -1.6299853994956945e+02 -2.1061917774786957e+02 0.0000000000000000e+00  -1.6682637613120937e+02 -2.2142003291354234e+02 0.0000000000000000e+00  -1.7073281051532689e+02 -2.3242738887491740e+02 0.0000000000000000e+00  -1.7450484971561383e+02 -2.4285659463390957e+02 0.0000000000000000e+00  -1.7773755650788172e+02 -2.5351001054568201e+02 0.0000000000000000e+00  -1.8060478280569876e+02 -2.6508460652578145e+02 0.0000000000000000e+00  -1.8373334706880294e+02 -2.7746144410416264e+02 0.0000000000000000e+00  -1.8675104060861264e+02 -2.9020791118778203e+02 0.0000000000000000e+00  -1.8966420220779236e+02 -3.0286639103344362e+02 0.0000000000000000e+00  -1.9237957815261248e+02 -3.1504060618591564e+02 0.0000000000000000e+00  -1.9497647556484938e+02 -3.2695070962847137e+02 0.0000000000000000e+00  -1.9751677548367581e+02 -3.3917525008838510e+02 0.0000000000000000e+00  -1.9971894906414911e+02 -3.5188320952613975e+02 0.0000000000000000e+00  -2.0201957261588706e+02 -3.6511080838932122e+02 0.0000000000000000e+00  -2.0543559190198562e+02 -3.7890897426996361e+02 0.0000000000000000e+00  -2.1033904468170113e+02 -3.9234219912672802e+02 0.0000000000000000e+00  -2.1487772752214974e+02 -4.0429272321851414e+02 0.0000000000000000e+00  -2.1880293985011684e+02 -4.1662807153374962e+02 0.0000000000000000e+00  -2.2204942450768073e+02 -4.3015754804100817e+02 0.0000000000000000e+00  -2.2454456425993155e+02 -4.4431332603802292e+02 0.0000000000000000e+00  -2.2632811185410441e+02 -4.5890507799545452e+02 0.0000000000000000e+00  -2.2807958012527007e+02 -4.7397314781169644e+02 0.0000000000000000e+00  -2.3031009248481408e+02 -4.8913630564566290e+02 0.0000000000000000e+00  -2.3323344665541802e+02 -5.0416933292400802e+02 0.0000000000000000e+00  -2.3669385240873189e+02 -5.1957803985906082e+02 0.0000000000000000e+00  -2.3982613937185533e+02 -5.3519224664704609e+02 0.0000000000000000e+00  -2.4199022043857030e+02 -5.5035716971390741e+02 0.0000000000000000e+00  -2.4395957441486561e+02 -5.6507909837000545e+02 0.0000000000000000e+00  -2.4563939671041840e+02 -5.7960250961164513e+02 0.0000000000000000e+00  -2.4687641502603884e+02 -5.9428838828111816e+02 0.0000000000000000e+00  -2.4786907883014132e+02 -6.0922661282738841e+02 0.0000000000000000e+00  -2.4879655279657936e+02 -6.2442474637979217e+02 0.0000000000000000e+00  -2.4997798282816225e+02 -6.3996138176454019e+02 0.0000000000000000e+00  -2.5135909355726901e+02 -6.5567074200640036e+02 0.0000000000000000e+00  -2.5251521241686183e+02 -6.7129902809641146e+02 0.0000000000000000e+00  -2.5350654283512216e+02 -6.8692839476068036e+02 0.0000000000000000e+00  -2.5446276846962667e+02 -7.0269765769926016e+02 0.0000000000000000e+00  -2.5552143368092533e+02 -7.1867942160131008e+02 0.0000000000000000e+00  -2.5633065290325777e+02 -7.3460535681241538e+02 0.0000000000000000e+00  -2.5679760320551941e+02 -7.5034606465385468e+02 0.0000000000000000e+00  -2.5721168146131339e+02 -7.6614403897013472e+02 0.0000000000000000e+00  -2.5774103413373433e+02 -7.8211353854000333e+02 0.0000000000000000e+00  -2.5822838637521687e+02 -7.9797812855038967e+02 0.0000000000000000e+00  -2.5870838807988252e+02 -8.1366262638600767e+02 0.0000000000000000e+00  -2.5925118332064534e+02 -8.2918795963557943e+02 0.0000000000000000e+00  -2.5971133191349418e+02 -8.4449609706326760e+02 0.0000000000000000e+00  -2.5995631673174432e+02 -8.5964275531501232e+02 0.0000000000000000e+00  -2.6009186179848450e+02 -8.7472298176335914e+02 0.0000000000000000e+00  -2.6016332863299215e+02 -8.8975157456540626e+02 0.0000000000000000e+00  -2.6018454456002303e+02 -9.0469493022875986e+02 0.0000000000000000e+00  -2.6018134375681967e+02 -9.1952733197611542e+02 0.0000000000000000e+00  0.0000000000000000e+00 0.0000000000000000e+00 0.0000000000000000e+00  -4.1077762217540172e+00 -2.7840653951317331e+00 0.0000000000000000e+00  -1.0542653667923716e+01 -7.4729504303328635e+00 0.0000000000000000e+00  -1.7014502716891869e+01 -1.2433048590938782e+01 0.0000000000000000e+00  -2.1489818841077426e+01 -1.6481147670594765e+01 0.0000000000000000e+00  -2.4966254732033072e+01 -2.0029150197487713e+01 0.0000000000000000e+00  -2.9062528159329641e+01 -2.3759905084289294e+01 0.0000000000000000e+00  -3.5432355446546900e+01 -2.8446733946549816e+01 0.0000000000000000e+00  -4.2942681580935499e+01 -3.4693067279500951e+01 0.0000000000000000e+00  -4.9454218682823594e+01 -4.0919435278637337e+01 0.0000000000000000e+00  -5.5582597533817435e+01 -4.6055256856398259e+01 0.0000000000000000e+00  -6.1330357076279007e+01 -5.0541147544200840e+01 0.0000000000000000e+00  -6.6888333417111028e+01 -5.5381064582319112e+01 0.0000000000000000e+00  -7.2773090336704882e+01 -6.0707566706316186e+01 0.0000000000000000e+00  -7.7764213053193487e+01 -6.5809577169135281e+01 0.0000000000000000e+00  -8.2263893206427440e+01 -7.1594892503860336e+01 0.0000000000000000e+00  -8.9098396713621852e+01 -7.9357888548544878e+01 0.0000000000000000e+00  -9.5661692622462326e+01 -8.8903752425833346e+01 0.0000000000000000e+00  -9.9034104347103238e+01 -9.8315444552268872e+01 0.0000000000000000e+00  -1.0243092469739270e+02 -1.0708590458846582e+02 0.0000000000000000e+00  -1.0863597833819310e+02 -1.1547790766956140e+02 0.0000000000000000e+00  -1.1745322031802570e+02 -1.2443604017126377e+02 0.0000000000000000e+00  -1.2374779321729730e+02 -1.3333676423012830e+02 0.0000000000000000e+00  -1.2842612865120768e+02 -1.4151541457883323e+02 0.0000000000000000e+00  -1.3150903438332935e+02 -1.4956965413441281e+02 0.0000000000000000e+00  -1.3391547515409920e+02 -1.5819450779664237e+02 0.0000000000000000e+00  -1.3692858626706766e+02 -1.6783064126064431e+02 0.0000000000000000e+00  -1.4095983424451654e+02 -1.7825687036812795e+02 0.0000000000000000e+00  -1.4530093875647813e+02 -1.8866361129900869e+02 0.0000000000000000e+00  -1.4967163639766633e+02 -1.9880121805948679e+02 0.0000000000000000e+00  -1.5334010337209736e+02 -2.0903155730147336e+02 0.0000000000000000e+00  -1.5635906468148374e+02 -2.1976129765379648e+02 0.0000000000000000e+00  -1.6026816726429539e+02 -2.3073253636774996e+02 0.0000000000000000e+00  -1.6419391