<?xml version="1.0"?>
<VTKFile type="UnstructuredGrid"  version="0.1"  >
<UnstructuredGrid>
<Piece  NumberOfPoints="3321" NumberOfCells="3200">
<Points>
<DataArray  type="Float64"  NumberOfComponents="3"  format="ascii">0 0 0  2 0 0  4 0 0  6 0 0  8 0 0  10 0 0  12 0 0  14 0 0  16 0 0  18 0 0  20 0 0  22 0 0  24 0 0  26 0 0  28 0 0  30 0 0  32 0 0  34 0 0  36 0 0  38 0 0  40 0 0  42 0 0  44 0 0  46 0 0  48 0 0  50 0 0  52 0 0  54 0 0  56 0 0  58 0 0  60 0 0  62 0 0  64 0 0  66 0 0  68 0 0  70 0 0  72 0 0  74 0 0  76 0 0  78 0 0  80 0 0  82 0 0  84 0 0  86 0 0  88 0 0  90 0 0  92 0 0  94 0 0  96 0 0  98 0 0  100 0 0  102 0 0  104 0 0  106 0 0  108 0 0  110 0 0  112 0 0  114 0 0  116 0 0  118 0 0  120 0 0  122 0 0  124 0 0  126 0 0  128 0 0  130 0 0  132 0 0  134 0 0  136 0 0  138 0 0  140 0 0  142 0 0  144 0 0  146 0 0  148 0 0  150 0 0  152 0 0  154 0 0  156 0 0  158 0 0  160 0 0  0 2 0  2 2 0  4 2 0  6 2 0  8 2 0  10 2 0  12 2 0  14 2 0  16 2 0  18 2 0  20 2 0  22 2 0  24 2 0  26 2 0  28 2 0  30 2 0  32 2 0  34 2 0  36 2 0  38 2 0  40 2 0  42 2 0  44 2 0  46 2 0  48 2 0  50 2 0  52 2 0  54 2 0  56 2 0  58 2 0  60 2 0  62 2 0  64 2 0  66 2 0  68 2 0  70 2 0  72 2 0  74 2 0  76 2 0  78 2 0  80 2 0  82 2 0  84 2 0  86 2 0  88 2 0  90 2 0  92 2 0  94 2 0  96 2 0  98 2 0  100 2 0  102 2 0  104 2 0  106 2 0  108 2 0  110 2 0  112 2 0  114 2 0  116 2 0  118 2 0  120 2 0  122 2 0  124 2 0  126 2 0  128 2 0  130 2 0  132 2 0  134 2 0  136 2 0  138 2 0  140 2 0  142 2 0  144 2 0  146 2 0  148 2 0  150 2 0  152 2 0  154 2 0  156 2 0  158 2 0  160 2 0  0 4 0  2 4 0  4 4 0  6 4 0  8 4 0  10 4 0  12 4 0  14 4 0  16 4 0  18 4 0  20 4 0  22 4 0  24 4 0  26 4 0  28 4 0  30 4 0  32 4 0  34 4 0  36 4 0  38 4 0  40 4 0  42 4 0  44 4 0  46 4 0  48 4 0  50 4 0  52 4 0  54 4 0  56 4 0  58 4 0  60 4 0  62 4 0  64 4 0  66 4 0  68 4 0  70 4 0  72 4 0  74 4 0  76 4 0  78 4 0  80 4 0  82 4 0  84 4 0  86 4 0  88 4 0  90 4 0  92 4 0  94 4 0  96 4 0  98 4 0  100 4 0  102 4 0  104 4 0  106 4 0  108 4 0  110 4 0  112 4 0  114 4 0  116 4 0  118 4 0  120 4 0  122 4 0  124 4 0  126 4 0  128 4 0  130 4 0  132 4 0  134 4 0  136 4 0  138 4 0  140 4 0  142 4 0  144 4 0  146 4 0  148 4 0  150 4 0  152 4 0  154 4 0  156 4 0  158 4 0  160 4 0  0 6 0  2 6 0  4 6 0  6 6 0  8 6 0  10 6 0  12 6 0  14 6 0  16 6 0  18 6 0  20 6 0  22 6 0  24 6 0  26 6 0  28 6 0  30 6 0  32 6 0  34 6 0  36 6 0  38 6 0  40 6 0  42 6 0  44 6 0  46 6 0  48 6 0  50 6 0  52 6 0  54 6 0  56 6 0  58 6 0  60 6 0  62 6 0  64 6 0  66 6 0  68 6 0  70 6 0  72 6 0  74 6 0  76 6 0  78 6 0  80 6 0  82 6 0  84 6 0  86 6 0  88 6 0  90 6 0  92 6 0  94 6 0  96 6 0  98 6 0  100 6 0  102 6 0  104 6 0  106 6 0  108 6 0  110 6 0  112 6 0  114 6 0  116 6 0  118 6 0  120 6 0  122 6 0  124 6 0  126 6 0  128 6 0  130 6 0  132 6 0  134 6 0  136 6 0  138 6 0  140 6 0  142 6 0  144 6 0  146 6 0  148 6 0  150 6 0  152 6 0  154 6 0  156 6 0  158 6 0  160 6 0  0 8 0  2 8 0  4 8 0  6 8 0  8 8 0  10 8 0  12 8 0  14 8 0  16 8 0  18 8 0  20 8 0  22 8 0  24 8 0  26 8 0  28 8 0  30 8 0  32 8 0  34 8 0  36 8 0  38 8 0  40 8 0  42 8 0  44 8 0  46 8 0  48 8 0  50 8 0  52 8 0  54 8 0  56 8 0  58 8 0  60 8 0  62 8 0  64 8 0  66 8 0  68 8 0  70 8 0  72 8 0  74 8 0  76 8 0  78 8 0  80 8 0  82 8 0  84 8 0  86 8 0  88 8 0  90 8 0  92 8 0  94 8 0  96 8 0  98 8 0  100 8 0  102 8 0  104 8 0  106 8 0  108 8 0  110 8 0  112 8 0  114 8 0  116 8 0  118 8 0  120 8 0  122 8 0  124 8 0  126 8 0  128 8 0  130 8 0  132 8 0  134 8 0  136 8 0  138 8 0  140 8 0  142 8 0  144 8 0  146 8 0  148 8 0  150 8 0  152 8 0  154 8 0  156 8 0  158 8 0  160 8 0  0 10 0  2 10 0  4 10 0  6 10 0  8 10 0  10 10 0  12 10 0  14 10 0  16 10 0  18 10 0  20 10 0  22 10 0  24 10 0  26 10 0  28 10 0  30 10 0  32 10 0  34 10 0  36 10 0  38 10 0  40 10 0  42 10 0  44 10 0  46 10 0  48 10 0  50 10 0  52 10 0  54 10 0  56 10 0  58 10 0  60 10 0  62 10 0  64 10 0  66 10 0  68 10 0  70 10 0  72 10 0  74 10 0  76 10 0  78 10 0  80 10 0  82 10 0  84 10 0  86 10 0  88 10 0  90 10 0  92 10 0  94 10 0  96 10 0  98 10 0  100 10 0  102 10 0  104 10 0  106 10 0  108 10 0  110 10 0  112 10 0  114 10 0  116 10 0  118 10 0  120 10 0  122 10 0  124 10 0  126 10 0  128 10 0  130 10 0  132 10 0  134 10 0  136 10 0  138 10 0  140 10 0  142 10 0  144 10 0  146 10 0  148 10 0  150 10 0  152 10 0  154 10 0  156 10 0  158 10 0  160 10 0  0 12 0  2 12 0  4 12 0  6 12 0  8 12 0  10 12 0  12 12 0  14 12 0  16 12 0  18 12 0  20 12 0  22 12 0  24 12 0  26 12 0  28 12 0  30 12 0  32 12 0  34 12 0  36 12 0  38 12 0  40 12 0  42 12 0  44 12 0  46 12 0  48 12 0  50 12 0  52 12 0  54 12 0  56 12 0  58 12 0  60 12 0  62 12 0  64 12 0  66 12 0  68 12 0  70 12 0  72 12 0  74 12 0  76 12 0  78 12 0  80 12 0  82 12 0  84 12 0  86 12 0  88 12 0  90 12 0  92 12 0  94 12 0  96 12 0  98 12 0  100 12 0  102 12 0  104 12 0  106 12 0  108 12 0  110 12 0  112 12 0  114 12 0  116 12 0  118 12 0  120 12 0  122 12 0  124 12 0  126 12 0  128 12 0  130 12 0  132 12 0  134 12 0  136 12 0  138 12 0  140 12 0  142 12 0  144 12 0  146 12 0  148 12 0  150 12 0  152 12 0  154 12 0  156 12 0  158 12 0  160 12 0  0 14 0  2 14 0  4 14 0  6 14 0  8 14 0  10 14 0  12 14 0  14 14 0  16 14 0  18 14 0  20 14 0  22 14 0  24 14 0  26 14 0  28 14 0  30 14 0  32 14 0  34 14 0  36 14 0  38 14 0  40 14 0  42 14 0  44 14 0  46 14 0  48 14 0  50 14 0  52 14 0  54 14 0  56 14 0  58 14 0  60 14 0  62 14 0  64 14 0  66 14 0  68 14 0  70 14 0  72 14 0  74 14 0  76 14 0  78 14 0  80 14 0  82 14 0  84 14 0  86 14 0  88 14 0  90 14 0  92 14 0  94 14 0  96 14 0  98 14 0  100 14 0  102 14 0  104 14 0  106 14 0  108 14 0  110 14 0  112 14 0  114 14 0  116 14 0  118 14 0  120 14 0  122 14 0  124 14 0  126 14 0  128 14 0  130 14 0  132 14 0  134 14 0  136 14 0  138 14 0  140 14 0  142 14 0  144 14 0  146 14 0  148 14 0  150 14 0  152 14 0  154 14 0  156 14 0  158 14 0  160 14 0  0 16 0  2 16 0  4 16 0  6 16 0  8 16 0  10 16 0  12 16 0  14 16 0  16 16 0  18 16 0  20 16 0  22 16 0  24 16 0  26 16 0  28 16 0  30 16 0  32 16 0  34 16 0  36 16 0  38 16 0  40 16 0  42 16 0  44 16 0  46 16 0  48 16 0  50 16 0  52 16 0  54 16 0  56 16 0  58 16 0  60 16 0  62 16 0  64 16 0  66 16 0  68 16 0  70 16 0  72 16 0  74 16 0  76 16 0  78 16 0  80 16 0  82 16 0  84 16 0  86 16 0  88 16 0  90 16 0  92 16 0  94 16 0  96 16 0  98 16 0  100 16 0  102 16 0  104 16 0  106 16 0  108 16 0  110 16 0  112 16 0  114 16 0  116 16 0  118 16 0  120 16 0  122 16 0  124 16 0  126 16 0  128 16 0  130 16 0  132 16 0  134 16 0  136 16 0  138 16 0  140 16 0  142 16 0  144 16 0  146 16 0  148 16 0  150 16 0  152 16 0  154 16 0  156 16 0  158 16 0  160 16 0  0 18 0  2 18 0  4 18 0  6 18 0  8 18 0  10 18 0  12 18 0  14 18 0  16 18 0  18 18 0  20 18 0  22 18 0  24 18 0  26 18 0  28 18 0  30 18 0  32 18 0  34 18 0  36 18 0  38 18 0  40 18 0  42 18 0  44 18 0  46 18 0  48 18 0  50 18 0  52 18 0  54 18 0  56 18 0  58 18 0  60 18 0  62 18 0  64 18 0  66 18 0  68 18 0  70 18 0  72 18 0  74 18 0  76 18 0  78 18 0  80 18 0  82 18 0  84 18 0  86 18 0  88 18 0  90 18 0  92 18 0  94 18 0  96 18 0  98 18 0  100 18 0  102 18 0  104 18 0  106 18 0  108 18 0  110 18 0  112 18 0  114 18 0  116 18 0  118 18 0  120 18 0  122 18 0  124 18 0  126 18 0  128 18 0  130 18 0  132 18 0  134 18 0  136 18 0  138 18 0  140 18 0  142 18 0  144 18 0  146 18 0  148 18 0  150 18 0  152 18 0  154 18 0  156 18 0  158 18 0  160 18 0  0 20 0  2 20 0  4 20 0  6 20 0  8 20 0  10 20 0  12 20 0  14 20 0  16 20 0  18 20 0  20 20 0  22 20 0  24 20 0  26 20 0  28 20 0  30 20 0  32 20 0  34 20 0  36 20 0  38 20 0  40 20 0  42 20 0  44 20 0  46 20 0  48 20 0  50 20 0  52 20 0  54 20 0  56 20 0  58 20 0  60 20 0  62 20 0  64 20 0  66 20 0  68 20 0  70 20 0  72 20 0  74 20 0  76 20 0  78 20 0  80 20 0  82 20 0  84 20 0  86 20 0  88 20 0  90 20 0  92 20 0  94 20 0  96 20 0  98 20 0  100 20 0  102 20 0  104 20 0  106 20 0  108 20 0  110 20 0  112 20 0  114 20 0  116 20 0  118 20 0  120 20 0  122 20 0  124 20 0  126 20 0  128 20 0  130 20 0  132 20 0  134 20 0  136 20 0  138 20 0  140 20 0  142 20 0  144 20 0  146 20 0  148 20 0  150 20 0  152 20 0  154 20 0  156 20 0  158 20 0  160 20 0  0 22 0  2 22 0  4 22 0  6 22 0  8 22 0  10 22 0  12 22 0  14 22 0  16 22 0  18 22 0  20 22 0  22 22 0  24 22 0  26 22 0  28 22 0  30 22 0  32 22 0  34 22 0  36 22 0  38 22 0  40 22 0  42 22 0  44 22 0  46 22 0  48 22 0  50 22 0  52 22 0  54 22 0  56 22 0  58 22 0  60 22 0  62 22 0  64 22 0  66 22 0  68 22 0  70 22 0  72 22 0  74 22 0  76 22 0  78 22 0  80 22 0  82 22 0  84 22 0  86 22 0  88 22 0  90 22 0  92 22 0  94 22 0  96 22 0  98 22 0  100 22 0  102 22 0  104 22 0  106 22 0  108 22 0  110 22 0  112 22 0  114 22 0  116 22 0  118 22 0  120 22 0  122 22 0  124 22 0  126 22 0  128 22 0  130 22 0  132 22 0  134 22 0  136 22 0  138 22 0  140 22 0  142 22 0  144 22 0  146 22 0  148 22 0  150 22 0  152 22 0  154 22 0  156 22 0  158 22 0  160 22 0  0 24 0  2 24 0  4 24 0  6 24 0  8 24 0  10 24 0  12 24 0  14 24 0  16 24 0  18 24 0  20 24 0  22 24 0  24 24 0  26 24 0  28 24 0  30 24 0  32 24 0  34 24 0  36 24 0  38 24 0  40 24 0  42 24 0  44 24 0  46 24 0  48 24 0  50 24 0  52 24 0  54 24 0  56 24 0  58 24 0  60 24 0  62 24 0  64 24 0  66 24 0  68 24 0  70 24 0  72 24 0  74 24 0  76 24 0  78 24 0  80 24 0  82 24 0  84 24 0  86 24 0  88 24 0  90 24 0  92 24 0  94 24 0  96 24 0  98 24 0  100 24 0  102 24 0  104 24 0  106 24 0  108 24 0  110 24 0  112 24 0  114 24 0  116 24 0  118 24 0  120 24 0  122 24 0  124 24 0  126 24 0  128 24 0  130 24 0  132 24 0  134 24 0  136 24 0  138 24 0  140 24 0  142 24 0  144 24 0  146 24 0  148 24 0  150 24 0  152 24 0  154 24 0  156 24 0  158 24 0  160 24 0  0 26 0  2 26 0  4 26 0  6 26 0  8 26 0  10 26 0  12 26 0  14 26 0  16 26 0  18 26 0  20 26 0  22 26 0  24 26 0  26 26 0  28 26 0  30 26 0  32 26 0  34 26 0  36 26 0  38 26 0  40 26 0  42 26 0  44 26 0  46 26 0  48 26 0  50 26 0  52 26 0  54 26 0  56 26 0  58 26 0  60 26 0  62 26 0  64 26 0  66 26 0  68 26 0  70 26 0  72 26 0  74 26 0  76 26 0  78 26 0  80 26 0  82 26 
[...]
<CellData  Scalars="density"> 
<DataArray  type="Float64"  Name="density"  format="ascii">4.4512171247886367e-01   4.4869004576574312e-01   4.4286174510322340e-01   4.4288995941934711e-01   4.4117112000545577e-01   4.2599551361474253e-01   4.3845756977897793e-01   5.4657738923785182e-01   6.1002738517356347e-01   5.5397877226253789e-01   5.2252184448353112e-01   4.6662736581919961e-01   4.9228887229384694e-01   4.8114611271535923e-01   2.7470700677933030e-01   1.3410275037175173e-01   2.3214613225726674e-01   4.6164962110056723e-01   5.7162598197839876e-01   6.1089779974369540e-01   6.2214778574978902e-01   5.7637285957210860e-01   5.5176703453577469e-01   5.1270084547098560e-01   3.9116924281761684e-01   3.6375702803105475e-01   4.3700867018104389e-01   5.0222545420059139e-01   4.9041281509960899e-01   4.1264421976346632e-01   4.4858675943367543e-01   5.2771217712450225e-01   5.0501914380522339e-01   3.8962401046758627e-01   3.4060110678649552e-01   4.5366234453378540e-01   5.4518589495662595e-01   6.1362509533094534e-01   6.7077985342558788e-01   5.9928678159122306e-01   4.5464513352266689e-01   4.7621992541555669e-01   4.9042103028933071e-01   4.0931211485303415e-01   4.4877221055495337e-01   4.2973063660610750e-01   2.4688452347521680e-01   2.0672255645044324e-01   2.9685862160985815e-01   3.6955180234913304e-01   4.1553882715625567e-01   4.6063582796256197e-01   4.2899392673619102e-01   2.9442752670792122e-01   2.4695811203359783e-01   3.4082976669492127e-01   4.2135459833515276e-01   4.1770140948318174e-01   3.7872702282040899e-01   3.4180388322723637e-01   2.8393909220964986e-01   3.0438331503746274e-01   3.8106857394787519e-01   3.8305553555072336e-01   3.6806822557397773e-01   4.1662868833288874e-01   4.4020590972811990e-01   4.5282105726616895e-01   5.1661609464759939e-01   4.8930453376407579e-01   5.2406319477543317e-01   5.4917393897799149e-01   5.6556553409300103e-01   5.1677349594864919e-01   4.3249510353924431e-01   3.4753672804043567e-01   3.2922930507119041e-01   2.9261708700770572e-01   2.2467061665472285e-01   1.5779940106838225e-01   4.1542082975540456e-01   4.0051704961453721e-01   4.1967065680445353e-01   5.1769695497389767e-01   5.3564955731821262e-01   4.3345496357707336e-01   3.5750793987528762e-01   3.9111060926763680e-01   5.0785735156580236e-01   5.2251564962717334e-01   4.3429281180455165e-01   3.6981428953574946e-01   3.4121127096961673e-01   3.8699922708313056e-01   3.1732543214554076e-01   2.3441071110866801e-01   3.0466910219024573e-01   4.4312208745429166e-01   4.8705380646964436e-01   4.0779809903303732e-01   4.2614917030582006e-01   4.7949696900751265e-01   5.3289008246997160e-01   5.3101635585979057e-01   4.5557202586218970e-01   4.3926441311884956e-01   4.7877006508571024e-01   4.7678293263564681e-01   4.6876584239132424e-01   4.5600810208638914e-01   4.4925341842031047e-01   4.7292098874959099e-01   4.7908440240600708e-01   4.5783631202887809e-01   4.7572697668191616e-01   4.6715630286149890e-01   4.8850431305154307e-01   5.0253466763937682e-01   5.3634779073584415e-01   5.2449244914215232e-01   4.7762030549101736e-01   4.9896589352432952e-01   5.0890254612336538e-01   4.0639527455787772e-01   3.4657309589498658e-01   3.4220922419841709e-01   2.6904600990969874e-01   2.9744495537249782e-01   3.9618059523273674e-01   4.6715123555879845e-01   4.7802718033733060e-01   4.2757081400875929e-01   3.3477096779415438e-01   2.8546256176206286e-01   3.1040473386673928e-01   4.0716325795352265e-01   4.4091334131328519e-01   4.4916148241920645e-01   4.5835160319690149e-01   4.7069957201281304e-01   4.7270294011220665e-01   4.1819398065785401e-01   4.3143866429496902e-01   4.8759866026389759e-01   5.0638912470381581e-01   4.8893021119939079e-01   4.4217233120678046e-01   5.0462354426243206e-01   5.9776554465116183e-01   5.6227334896263714e-01   4.4120215053225598e-01   4.4598772644970136e-01   4.1975099777506780e-01   3.6886104425921862e-01   3.4007431048656589e-01   4.1543814564733189e-01   4.4344686600576516e-01   3.7699700690309773e-01   2.8675677860812127e-01   2.2120692695595798e-01   4.6564950036640967e-01   4.0112078016092750e-01   4.2674996766613044e-01   5.5117047338433622e-01   6.0058762882262806e-01   4.8960225478335390e-01   2.9668307309243996e-01   2.8854550220539721e-01   3.8190068519874415e-01   3.9464991516669817e-01   3.8288661194883222e-01   3.4614522676088855e-01   3.2679792386427087e-01   3.8349072275972079e-01   4.1613212038302688e-01   3.3188183517092779e-01   3.5991998488811494e-01   5.3871656608183371e-01   4.8316511703011478e-01   2.9042381656118754e-01   2.3631777256021030e-01   3.4360683194550795e-01   4.2164742635981389e-01   5.0068606697731333e-01   5.7150292593777929e-01   5.2659995962539985e-01   4.7675468528378051e-01   4.4160176637702542e-01   4.2988542864435014e-01   4.3224423464138018e-01   4.7361997612351814e-01   4.2979034592347243e-01   4.4439367146123532e-01   5.4563534660126312e-01   5.6536335945593985e-01   5.1269846158041543e-01   4.7613649163851302e-01   4.2552735506583150e-01   4.1682276318188105e-01   4.4200425238341412e-01   4.6191890723264672e-01   5.1032872580059352e-01   4.5161318494508373e-01   2.8786952752608791e-01   1.9532642338821624e-01   2.7124868060347679e-01   3.8957877648735534e-01   4.2959698670423518e-01   4.7237248620552630e-01   5.6749151897742534e-01   5.1091163489137470e-01   3.9086194060578811e-01   3.4855653538976700e-01   2.9821215493733644e-01   2.9973751305406587e-01   3.8133152948361282e-01   3.9370290482979386e-01   4.6762356609240968e-01   5.8952896589080939e-01   6.4728728291419224e-01   6.4410824547781409e-01   5.4590148836763419e-01   4.3558108175342297e-01   4.3186373195829969e-01   4.5910474548546754e-01   4.7022214442662291e-01   4.0143835381591836e-01   4.1423113735687744e-01   5.6099868593645397e-01   5.2108062691958090e-01   3.6683973925555152e-01   2.9837548573162226e-01   2.6029694111000901e-01   2.1548977442739278e-01   2.7985051156011254e-01   3.8240176223590078e-01   4.2928292308912630e-01   4.2955159621664507e-01   4.1225952440558833e-01   4.1662856240426932e-01   4.3970734965675645e-01   3.3230819873449902e-01   3.1838356007414009e-01   3.9654036129077364e-01   4.7954891834782515e-01   4.6572251194738473e-01   3.9088011417873997e-01   3.2297080427119951e-01   3.0060788806712585e-01   3.1267330297870760e-01   3.7712052547627872e-01   4.5419237978349392e-01   4.5242718051851405e-01   5.1056939330512907e-01   5.3778606816544239e-01   4.0196217706961068e-01   3.8412558609920638e-01   5.2522820139089565e-01   5.1881487132564819e-01   3.2596387093711016e-01   2.1317804277699018e-01   2.2658234056248538e-01   2.8295398664246219e-01   4.5881350364782514e-01   5.5230767044955786e-01   4.9956046092847262e-01   4.0403344402258606e-01   3.9159420921770344e-01   3.8942642602319361e-01   4.8052301511279993e-01   5.4102345138102359e-01   4.4185848356355328e-01   4.2536985448910003e-01   5.2114740227839418e-01   5.3483468113952837e-01   5.4492779284281190e-01   5.2023565871753130e-01   4.2399237146724444e-01   4.5606495292234434e-01   4.7612596016491165e-01   4.7009993328319905e-01   5.1961455065377116e-01   4.4632306687722412e-01   2.7824617573751853e-01   2.5190093366689420e-01   3.6125137059274282e-01   4.9486554112964010e-01   5.1073094768880456e-01   5.1358330621560089e-01   5.7366125265605539e-01   4.5891399810242939e-01   3.9491387839268693e-01   4.3667371949898992e-01   3.7074540113908572e-01   2.8480156450538702e-01   2.8692880414684752e-01   3.8384891588142128e-01   5.5708083081902882e-01   6.6326061357598753e-01   6.9133338095350449e-01   6.8510432617586048e-01   5.8817457102920923e-01   4.4641074762083477e-01   3.6945509273723959e-01   4.1536071736737307e-01   4.4691097709164862e-01   3.4675387118434542e-01   3.2407321313690773e-01   4.0958298273893112e-01   3.8728732727568360e-01   3.1449026948650644e-01   2.4967522639812006e-01   2.1220884421750213e-01   2.4758143409502301e-01   3.3426005947905885e-01   3.6443612166064659e-01   3.7776738254416337e-01   3.9332072034232196e-01   4.3624411844898836e-01   4.5407357985707436e-01   3.5539655686324345e-01   2.8224524035994064e-01   2.4794696457195647e-01   3.3901969395376674e-01   4.1205951386088674e-01   4.2880400844868577e-01   4.2795532642717798e-01   3.8566460715416656e-01   3.0420389475871917e-01   2.4823295847957827e-01   3.1020040670991794e-01   4.0094947450933316e-01   3.9387477740469840e-01   4.5119312287999275e-01   5.0916738559364061e-01   4.1113074108940767e-01   2.9894141577977362e-01   3.3220378169359671e-01   3.8984015529979804e-01   3.8732294029459752e-01   3.7097720905648207e-01   3.3773389281922123e-01   2.9542779583117235e-01   3.5636452598810991e-01   4.5529166045240893e-01   4.3905070920222566e-01   3.9394244996985678e-01   3.7135851012073973e-01   4.2299957393986892e-01   5.2835406663999429e-01   5.0091332487041274e-01   3.8573633737971369e-01   3.9639069901880553e-01   4.5303173401453950e-01   4.9175292964879536e-01   5.0146843939480679e-01   4.4347075049020018e-01   3.7873173107794650e-01   4.7404646077190238e-01   5.0999772746626659e-01   4.7685949685715245e-01   5.6723433331322570e-01   5.1626165261448709e-01   3.7547002182334432e-01   3.6950509189452413e-01   4.5479286695280702e-01   5.4129202232189388e-01   5.9803237254451647e-01   6.3139814351803158e-01   5.9542758833632559e-01   4.7913829683932752e-01   4.3891350783325567e-01   4.5182547172012294e-01   4.1733442554226530e-01   3.2782315435555009e-01   3.2301015577921038e-01   4.4397711877397039e-01   5.7233227442671519e-01   5.9669709285524697e-01   6.2147299655708133e-01   5.8726302422650223e-01   5.1356502522451075e-01   4.9536466158466735e-01   4.6863295683689205e-01   4.6324090892224057e-01   4.7172357201769399e-01   3.8422771813009460e-01   3.4829551521384883e-01   3.8510185002283975e-01   3.5048032572312299e-01   3.0978014743304444e-01   3.5280357187951028e-01   3.8165870032859317e-01   4.4419230319709330e-01   4.7734210635144814e-01   5.0540512129500648e-01   4.7655395422027302e-01   4.4873621811506836e-01   4.1373837776040090e-01   3.6963977615602156e-01   3.2351617162184371e-01   3.2006183747790745e-01   3.0426431185710234e-01   4.0517911761276060e-01   4.7146615010582921e-01   4.1436038525258517e-01   4.0817315489204509e-01   4.4892135060158134e-01   4.3507261547488829e-01   2.7043078570961854e-01   2.3721462465067056e-01   3.2445644572501414e-01   3.3253022118908759e-01   3.3348223452725206e-01   3.6484987457966239e-01   3.2014352279514385e-01   2.3822902001134677e-01   2.0153841992887908e-01   2.6887185055154333e-01   4.1171321839894981e-01   5.1827658650625641e-01   5.0607404782873067e-01   3.8716798453128359e-01   3.5150796200526530e-01   4.2432531627834369e-01   5.2389946576046953e-01   4.8548727066104430e-01   3.6642384528100203e-01   3.8991790425091394e-01   4.0545567651459119e-01   3.3321036336478249e-01   3.4240169436915768e-01   4.0337056202088895e-01   4.7931961389310884e-01   4.9432950329976433e-01   4.4052210212795362e-01   3.4988058086782425e-01   3.3139137478298408e-01   4.6744176489627071e-01   4.9342912952166040e-01   4.6034920906635390e-01   5.0441073904629108e-01   4.8213362676690330e-01   3.3752317846230490e-01   3.0108439497456341e-01   3.9502081350670754e-01   5.6480403579511196e-01   6.5893523424645706e-01   6.4294556486590548e-01   5.3368292117337857e-01   4.3795155461445540e-01   4.5683125456963491e-01   4.0251082304190694e-01   3.5033126754688487e-01   3.4929726249780668e-01   3.5579296972053664e-01   4.3044144031889470e-01   4.8019428686472004e-01   5.5690601179738763e-01   5.6407063482910336e-01   4.3450766107954963e-01   4.0438359415591724e-01   4.9040867847395481e-01   5.3889359929562475e-01   4.5399140426190143e-01   4.0070447553352567e-01   4.1223525586592197e-01   4.5592774416721088e-01   4.4923535821848931e-01   3.8308914952137030e-01   3.8892683729218064e-01   4.5900003081029933e-01   5.0361040611529007e-01   5.6837059515624955e-01   5.8162900435142662e-01   5.1114736720014031e-01   4.9119750269901002e-01   5.2701517752635030e-01   5.2832866179247595e-01   4.6614019229744347e-01   2.8947904468928637e-01   3.1975953377218336e-01   3.8986476622406463e-01   4.5068198135615339e-01   4.6664834932200749e-01   4.5469100944592961e-01   4.7590465381759561e-01   5.8258442439268809e-01   6.2728506348885738e-01   4.8773746212715641e-01   3.5905452263097765e-01   3.6192425471340750e-01   3.7961209198127877e-01   3.8478123261322827e-01   3.7682639801109691e-01   3.0534177686802455e-01   2.8100562593705009e-01   2.9948618870625698e-01   3.4911124269621313e-01   4.2165064088910409e-01   4.6340975015812352e-01   4.5303692586454247e-01   4.2574615522299053e-01   3.9980741711199697e-01   4.3803053062174718e-01   5.3253763504919260e-01   4.3619662469394310e-01   2.5113930324960992e-01   2.7014837813975368e-01   3.6244479114378098e-01   3.7111689296205291e-01   4.3448788551513262e-01   5.1969083700844254e-01   5.0894946067505864e-01   5.1441139681997505e-01   4.8331582659112621e-01   3.7686675269221470e-01   3.6026689852596971e-01   5.0699360810750416e-01   5.4852277686525819e-01   4.4104029861395955e-01   3.6595785458158342e-01   3.5049433538366631e-01   3.0928868997719527e-01   2.5633161603884513e-01   3.3460255241395276e-01   4.7988325654875136e-01   5.3607476342218097e-01   4.5904750747854883e-01   3.6169283799598578e-01   3.1698467136976372e-01   3.9343258149582916e-01   4.1281450087239785e-01   3.0490516782941390e-01   2.4124098054480814e-01   3.0504605539182045e-01   4.1274078887848725e-01   4.9148861055670778e-01   5.8114050679567986e-01   5.6483985020006300e-01   4.0950584759969216e-01   4.0782370553964015e-01   5.1622322955160149e-01   5.7785349204166714e-01   5.4444506900807887e-01   4.3057885275142255e-01   4.7897346207861807e-01   5.3960459224521817e-01   4.2829988509278943e-01   3.4771582856091493e-01   3.6049384407168894e-01   3.6774035481174172e-01   4.2009564756389872e-01   5.3530633965463570e-01   5.6969281711653641e-01   4.4275766896717988e-01   3.5098800329885477e-01   4.2809933778427733e-01   5.6265650586554394e-01   6.3014798878235112e-01   4.1944494999398707e-01   4.4314548071320192e-01   5.4632714400945692e-01   5.1633748118065881e-01   4.3608406919877724e-01   4.7065593995668875e-01   5.5103637537885775e-01   6.6664510674480748e-01   6.8728273352828484e-01   6.0345695961879975e-01   4.8248496858563544e-01   3.5661319659745300e-01   3.0284290609350872e-01   4.0968319742948833e-01   4.6747995885426841e-01   3.5176169408798325e-01   3.0202399109607275e-01   3.9711712263035875e-01   4.7060602058148948e-01   4.8975608819101568e-01   4.3444419301790926e-01   4.0812377860614407e-01   3.6897423672561080e-01   3.2157351800059109e-01   3.9460777250963236e-01   4.0045404623253777e-01   3.0169021600350487e-01   2.1436625792008679e-01   3.0139176090254371e-01   4.7037140692216084e-01   5.0320339405226522e-01   5.2336793385809377e-01   5.1779715194443188e-01   4.5619514856011639e-01   4.9675082469385534e-01   5.5849536550301315e-01   4.5744563036988678e-01   3.6766927600179222e-01   4.3914245225894560e-01   4.9607534279764537e-01   3.8263830809851657e-01   2.7895115076953048e-01   3.1067019906007154e-01   3.0569521515790271e-01   3.3961008735962589e-01   3.7284279322972991e-01   4.1270027024618378e-01   4.2977689821582532e-01   4.0144728748886926e-01   3.4560978211549931e-01   3.1193980316328263e-01   3.7869935115568837e-01   4.3154525432224589e-01   3.2214290045925781e-01   2.1513513414892388e-01   2.8192829924279700e-01   3.7647494209598598e-01   4.2961171857444624e-01   5.2684992203592040e-01   5.6246016801255083e-01   4.4937181066242787e-01   4.0422057080760770e-01   4.5304064809679867e-01   5.1607501657064736e-01   5.4654575143146533e-01   5.0445715197844709e-01   4.8058154626920135e-01   4.4080430230370016e-01   3.4069473901240299e-01   2.8646710768369510e-01   2.6287133525352485e-01   2.9956353948121278e-01   3.9177781010173873e-01   4.5706118300168352e-01   4.7583372088131681e-01   4.1042820382583856e-01   2.7640316637584267e-01   2.9037311061727550e-01   4.6711289217695828e-01   6.0175737349677605e-01   6.4419125365481800e-01   6.3468862704101692e-01   6.1520438133285105e-01   5.2018577732780125e-01   4.4263688810536622e-01   4.5437428307583289e-01   5.7525852590496007e-01   6.6211567873995314e-01   6.1510881511561277e-01   4.7939328208024606e-01   4.2437306390063440e-01   3.5688971563901301e-01   2.4694599555271915e-01   3.3540562979090521e-01   4.4842841084206370e-01   3.6424297820043894e-01   3.0461123556139480e-01   3.2540484069270154e-01   4.1495005865388912e-01   4.4938291122855833e-01   4.6104785487166344e-01   4.3995563543857652e-01   3.0023797683686887e-01   2.4184267494260453e-01   3.2261626639970448e-01   3.6187596876126349e-01   3.7706551210873668e-01   4.1189097895377275e-01   4.8700261950711138e-01   5.1720431970446124e-01   4.7279108500231820e-01   5.0231680408443580e-01   4.9449421513639458e-01   4.0212586456734684e-01   4.7968291184042222e-01   5.6646159223182424e-01   4.8984006603919300e-01   3.2771782494408469e-01   2.9129089079910592e-01   3.7066415751041448e-01   3.9077314205591440e-01   3.2246852018567129e-01   3.0280389726989770e-01   3.6534995032408057e-01   4.2450036443057532e-01   5.2234065689724785e-01   5.2745705483525074e-01   5.3206469413286728e-01   5.3358151504509577e-01   4.8686864948086206e-01   4.1433269909072762e-01   3.5062721494303611e-01   3.3055403897138291e-01   3.5661117358241967e-01   3.4903205641276813e-01   3.3925919053335285e-01   2.9466217021961238e-01   3.2992704583844407e-01   4.9775050497866741e-01   5.5622215134871333e-01   4.1805090417732926e-01   3.3016103042181216e-01   3.6881291477409706e-01   3.7136909570165849e-01   3.3761905515595825e-01   3.0827056049517654e-01   2.9181772674017453e-01   2.3794055991201546e-01   2.4911700405088111e-01   3.1029395524796233e-01   2.8934922222849180e-01   3.6237080537500549e-01   4.3829585880200495e-01   4.2327137061773185e-01   4.3235979286786652e-01   4.3288662927494181e-01   3.5204308504174769e-01   3.0701554701013956e-01   3.8893945516088324e-01   5.0629813384010647e-01   5.9085550884742555e-01   5.7158364417674568e-01   4.7942500016684958e-01   4.6412344416752527e-01   4.8508897138968038e-01   5.5190887249540366e-01   6.1632045387114276e-01   6.6221806812456530e-01   5.9050107696185095e-01   4.5239368315804285e-01   3.9283669241429636e-01   3.7446416667195703e-01   3.3120608256348016e-01   3.4079929550200222e-01   3.7898008268772493e-01   3.4634006172855719e-01   2.9657280220961796e-01   3.1436911370785259e-01   3.4097757195239120e-01   3.3288541900008695e-01   3.6290953894245459e-01   3.8152124687565736e-01   2.4722644024941323e-01   2.0463706847231131e-01   3.1691416435520520e-01   3.9869119475703935e-01   5.0884045662867750e-01   6.0794458560322906e-01   6.0285364562324895e-01   4.6978745465233973e-01   3.5579707009211048e-01   4.3835890350284956e-01   5.1633489519603026e-01   4.8352571055107940e-01   4.7880650284261828e-01   5.6130016189493814e-01   4.4020721103159527e-01   2.4808765024316862e-01   2.2866905821669312e-01   3.6919385259832510e-01   4.3942071817672373e-01   3.3778657496282688e-01   3.1144854860166266e-01   4.0962571742120246e-01   5.5745509790955639e-01   6.6317313146820345e-01   6.4174113855882498e-01   5.5436750912571786e-01   5.5743808450682908e-01   5.8275656828855671e-01   5.1083991362449099e-01   3.6011160686553079e-01   2.5532205643915901e-01   3.8464547118217240e-01   5.1769439580343946e-01   4.2268121424649480e-01   3.0785681207584170e-01   3.4251681845004273e-01   4.6911428631985985e-01   5.1134861268840470e-01   4.3655714094779635e-01   4.0845300248139027e-01   4.3435991437501137e-01   3.8142530589357287e-01   2.9614747052682261e-01   2.5831832565897939e-01   2.1289692781267261e-01   2.0562463997720193e-01   3.0414575116255826e-01   3.8427474504540016e-01   3.8941091487588603e-01   3.9063291482888279e-01   3.8738054159705065e-01   3.7423738351456354e-01   4.4413364421389784e-01   4.8049828367150987e-01   3.83643031