<?xml version="1.0"?>
<VTKFile type="UnstructuredGrid"  version="0.1"  >
<UnstructuredGrid>
<Piece  NumberOfPoints="3321" NumberOfCells="3200">
<Points>
<DataArray  type="Float64"  NumberOfComponents="3"  format="ascii">0 0 0  2 0 0  4 0 0  6 0 0  8 0 0  10 0 0  12 0 0  14 0 0  16 0 0  18 0 0  20 0 0  22 0 0  24 0 0  26 0 0  28 0 0  30 0 0  32 0 0  34 0 0  36 0 0  38 0 0  40 0 0  42 0 0  44 0 0  46 0 0  48 0 0  50 0 0  52 0 0  54 0 0  56 0 0  58 0 0  60 0 0  62 0 0  64 0 0  66 0 0  68 0 0  70 0 0  72 0 0  74 0 0  76 0 0  78 0 0  80 0 0  82 0 0  84 0 0  86 0 0  88 0 0  90 0 0  92 0 0  94 0 0  96 0 0  98 0 0  100 0 0  102 0 0  104 0 0  106 0 0  108 0 0  110 0 0  112 0 0  114 0 0  116 0 0  118 0 0  120 0 0  122 0 0  124 0 0  126 0 0  128 0 0  130 0 0  132 0 0  134 0 0  136 0 0  138 0 0  140 0 0  142 0 0  144 0 0  146 0 0  148 0 0  150 0 0  152 0 0  154 0 0  156 0 0  158 0 0  160 0 0  0 2 0  2 2 0  4 2 0  6 2 0  8 2 0  10 2 0  12 2 0  14 2 0  16 2 0  18 2 0  20 2 0  22 2 0  24 2 0  26 2 0  28 2 0  30 2 0  32 2 0  34 2 0  36 2 0  38 2 0  40 2 0  42 2 0  44 2 0  46 2 0  48 2 0  50 2 0  52 2 0  54 2 0  56 2 0  58 2 0  60 2 0  62 2 0  64 2 0  66 2 0  68 2 0  70 2 0  72 2 0  74 2 0  76 2 0  78 2 0  80 2 0  82 2 0  84 2 0  86 2 0  88 2 0  90 2 0  92 2 0  94 2 0  96 2 0  98 2 0  100 2 0  102 2 0  104 2 0  106 2 0  108 2 0  110 2 0  112 2 0  114 2 0  116 2 0  118 2 0  120 2 0  122 2 0  124 2 0  126 2 0  128 2 0  130 2 0  132 2 0  134 2 0  136 2 0  138 2 0  140 2 0  142 2 0  144 2 0  146 2 0  148 2 0  150 2 0  152 2 0  154 2 0  156 2 0  158 2 0  160 2 0  0 4 0  2 4 0  4 4 0  6 4 0  8 4 0  10 4 0  12 4 0  14 4 0  16 4 0  18 4 0  20 4 0  22 4 0  24 4 0  26 4 0  28 4 0  30 4 0  32 4 0  34 4 0  36 4 0  38 4 0  40 4 0  42 4 0  44 4 0  46 4 0  48 4 0  50 4 0  52 4 0  54 4 0  56 4 0  58 4 0  60 4 0  62 4 0  64 4 0  66 4 0  68 4 0  70 4 0  72 4 0  74 4 0  76 4 0  78 4 0  80 4 0  82 4 0  84 4 0  86 4 0  88 4 0  90 4 0  92 4 0  94 4 0  96 4 0  98 4 0  100 4 0  102 4 0  104 4 0  106 4 0  108 4 0  110 4 0  112 4 0  114 4 0  116 4 0  118 4 0  120 4 0  122 4 0  124 4 0  126 4 0  128 4 0  130 4 0  132 4 0  134 4 0  136 4 0  138 4 0  140 4 0  142 4 0  144 4 0  146 4 0  148 4 0  150 4 0  152 4 0  154 4 0  156 4 0  158 4 0  160 4 0  0 6 0  2 6 0  4 6 0  6 6 0  8 6 0  10 6 0  12 6 0  14 6 0  16 6 0  18 6 0  20 6 0  22 6 0  24 6 0  26 6 0  28 6 0  30 6 0  32 6 0  34 6 0  36 6 0  38 6 0  40 6 0  42 6 0  44 6 0  46 6 0  48 6 0  50 6 0  52 6 0  54 6 0  56 6 0  58 6 0  60 6 0  62 6 0  64 6 0  66 6 0  68 6 0  70 6 0  72 6 0  74 6 0  76 6 0  78 6 0  80 6 0  82 6 0  84 6 0  86 6 0  88 6 0  90 6 0  92 6 0  94 6 0  96 6 0  98 6 0  100 6 0  102 6 0  104 6 0  106 6 0  108 6 0  110 6 0  112 6 0  114 6 0  116 6 0  118 6 0  120 6 0  122 6 0  124 6 0  126 6 0  128 6 0  130 6 0  132 6 0  134 6 0  136 6 0  138 6 0  140 6 0  142 6 0  144 6 0  146 6 0  148 6 0  150 6 0  152 6 0  154 6 0  156 6 0  158 6 0  160 6 0  0 8 0  2 8 0  4 8 0  6 8 0  8 8 0  10 8 0  12 8 0  14 8 0  16 8 0  18 8 0  20 8 0  22 8 0  24 8 0  26 8 0  28 8 0  30 8 0  32 8 0  34 8 0  36 8 0  38 8 0  40 8 0  42 8 0  44 8 0  46 8 0  48 8 0  50 8 0  52 8 0  54 8 0  56 8 0  58 8 0  60 8 0  62 8 0  64 8 0  66 8 0  68 8 0  70 8 0  72 8 0  74 8 0  76 8 0  78 8 0  80 8 0  82 8 0  84 8 0  86 8 0  88 8 0  90 8 0  92 8 0  94 8 0  96 8 0  98 8 0  100 8 0  102 8 0  104 8 0  106 8 0  108 8 0  110 8 0  112 8 0  114 8 0  116 8 0  118 8 0  120 8 0  122 8 0  124 8 0  126 8 0  128 8 0  130 8 0  132 8 0  134 8 0  136 8 0  138 8 0  140 8 0  142 8 0  144 8 0  146 8 0  148 8 0  150 8 0  152 8 0  154 8 0  156 8 0  158 8 0  160 8 0  0 10 0  2 10 0  4 10 0  6 10 0  8 10 0  10 10 0  12 10 0  14 10 0  16 10 0  18 10 0  20 10 0  22 10 0  24 10 0  26 10 0  28 10 0  30 10 0  32 10 0  34 10 0  36 10 0  38 10 0  40 10 0  42 10 0  44 10 0  46 10 0  48 10 0  50 10 0  52 10 0  54 10 0  56 10 0  58 10 0  60 10 0  62 10 0  64 10 0  66 10 0  68 10 0  70 10 0  72 10 0  74 10 0  76 10 0  78 10 0  80 10 0  82 10 0  84 10 0  86 10 0  88 10 0  90 10 0  92 10 0  94 10 0  96 10 0  98 10 0  100 10 0  102 10 0  104 10 0  106 10 0  108 10 0  110 10 0  112 10 0  114 10 0  116 10 0  118 10 0  120 10 0  122 10 0  124 10 0  126 10 0  128 10 0  130 10 0  132 10 0  134 10 0  136 10 0  138 10 0  140 10 0  142 10 0  144 10 0  146 10 0  148 10 0  150 10 0  152 10 0  154 10 0  156 10 0  158 10 0  160 10 0  0 12 0  2 12 0  4 12 0  6 12 0  8 12 0  10 12 0  12 12 0  14 12 0  16 12 0  18 12 0  20 12 0  22 12 0  24 12 0  26 12 0  28 12 0  30 12 0  32 12 0  34 12 0  36 12 0  38 12 0  40 12 0  42 12 0  44 12 0  46 12 0  48 12 0  50 12 0  52 12 0  54 12 0  56 12 0  58 12 0  60 12 0  62 12 0  64 12 0  66 12 0  68 12 0  70 12 0  72 12 0  74 12 0  76 12 0  78 12 0  80 12 0  82 12 0  84 12 0  86 12 0  88 12 0  90 12 0  92 12 0  94 12 0  96 12 0  98 12 0  100 12 0  102 12 0  104 12 0  106 12 0  108 12 0  110 12 0  112 12 0  114 12 0  116 12 0  118 12 0  120 12 0  122 12 0  124 12 0  126 12 0  128 12 0  130 12 0  132 12 0  134 12 0  136 12 0  138 12 0  140 12 0  142 12 0  144 12 0  146 12 0  148 12 0  150 12 0  152 12 0  154 12 0  156 12 0  158 12 0  160 12 0  0 14 0  2 14 0  4 14 0  6 14 0  8 14 0  10 14 0  12 14 0  14 14 0  16 14 0  18 14 0  20 14 0  22 14 0  24 14 0  26 14 0  28 14 0  30 14 0  32 14 0  34 14 0  36 14 0  38 14 0  40 14 0  42 14 0  44 14 0  46 14 0  48 14 0  50 14 0  52 14 0  54 14 0  56 14 0  58 14 0  60 14 0  62 14 0  64 14 0  66 14 0  68 14 0  70 14 0  72 14 0  74 14 0  76 14 0  78 14 0  80 14 0  82 14 0  84 14 0  86 14 0  88 14 0  90 14 0  92 14 0  94 14 0  96 14 0  98 14 0  100 14 0  102 14 0  104 14 0  106 14 0  108 14 0  110 14 0  112 14 0  114 14 0  116 14 0  118 14 0  120 14 0  122 14 0  124 14 0  126 14 0  128 14 0  130 14 0  132 14 0  134 14 0  136 14 0  138 14 0  140 14 0  142 14 0  144 14 0  146 14 0  148 14 0  150 14 0  152 14 0  154 14 0  156 14 0  158 14 0  160 14 0  0 16 0  2 16 0  4 16 0  6 16 0  8 16 0  10 16 0  12 16 0  14 16 0  16 16 0  18 16 0  20 16 0  22 16 0  24 16 0  26 16 0  28 16 0  30 16 0  32 16 0  34 16 0  36 16 0  38 16 0  40 16 0  42 16 0  44 16 0  46 16 0  48 16 0  50 16 0  52 16 0  54 16 0  56 16 0  58 16 0  60 16 0  62 16 0  64 16 0  66 16 0  68 16 0  70 16 0  72 16 0  74 16 0  76 16 0  78 16 0  80 16 0  82 16 0  84 16 0  86 16 0  88 16 0  90 16 0  92 16 0  94 16 0  96 16 0  98 16 0  100 16 0  102 16 0  104 16 0  106 16 0  108 16 0  110 16 0  112 16 0  114 16 0  116 16 0  118 16 0  120 16 0  122 16 0  124 16 0  126 16 0  128 16 0  130 16 0  132 16 0  134 16 0  136 16 0  138 16 0  140 16 0  142 16 0  144 16 0  146 16 0  148 16 0  150 16 0  152 16 0  154 16 0  156 16 0  158 16 0  160 16 0  0 18 0  2 18 0  4 18 0  6 18 0  8 18 0  10 18 0  12 18 0  14 18 0  16 18 0  18 18 0  20 18 0  22 18 0  24 18 0  26 18 0  28 18 0  30 18 0  32 18 0  34 18 0  36 18 0  38 18 0  40 18 0  42 18 0  44 18 0  46 18 0  48 18 0  50 18 0  52 18 0  54 18 0  56 18 0  58 18 0  60 18 0  62 18 0  64 18 0  66 18 0  68 18 0  70 18 0  72 18 0  74 18 0  76 18 0  78 18 0  80 18 0  82 18 0  84 18 0  86 18 0  88 18 0  90 18 0  92 18 0  94 18 0  96 18 0  98 18 0  100 18 0  102 18 0  104 18 0  106 18 0  108 18 0  110 18 0  112 18 0  114 18 0  116 18 0  118 18 0  120 18 0  122 18 0  124 18 0  126 18 0  128 18 0  130 18 0  132 18 0  134 18 0  136 18 0  138 18 0  140 18 0  142 18 0  144 18 0  146 18 0  148 18 0  150 18 0  152 18 0  154 18 0  156 18 0  158 18 0  160 18 0  0 20 0  2 20 0  4 20 0  6 20 0  8 20 0  10 20 0  12 20 0  14 20 0  16 20 0  18 20 0  20 20 0  22 20 0  24 20 0  26 20 0  28 20 0  30 20 0  32 20 0  34 20 0  36 20 0  38 20 0  40 20 0  42 20 0  44 20 0  46 20 0  48 20 0  50 20 0  52 20 0  54 20 0  56 20 0  58 20 0  60 20 0  62 20 0  64 20 0  66 20 0  68 20 0  70 20 0  72 20 0  74 20 0  76 20 0  78 20 0  80 20 0  82 20 0  84 20 0  86 20 0  88 20 0  90 20 0  92 20 0  94 20 0  96 20 0  98 20 0  100 20 0  102 20 0  104 20 0  106 20 0  108 20 0  110 20 0  112 20 0  114 20 0  116 20 0  118 20 0  120 20 0  122 20 0  124 20 0  126 20 0  128 20 0  130 20 0  132 20 0  134 20 0  136 20 0  138 20 0  140 20 0  142 20 0  144 20 0  146 20 0  148 20 0  150 20 0  152 20 0  154 20 0  156 20 0  158 20 0  160 20 0  0 22 0  2 22 0  4 22 0  6 22 0  8 22 0  10 22 0  12 22 0  14 22 0  16 22 0  18 22 0  20 22 0  22 22 0  24 22 0  26 22 0  28 22 0  30 22 0  32 22 0  34 22 0  36 22 0  38 22 0  40 22 0  42 22 0  44 22 0  46 22 0  48 22 0  50 22 0  52 22 0  54 22 0  56 22 0  58 22 0  60 22 0  62 22 0  64 22 0  66 22 0  68 22 0  70 22 0  72 22 0  74 22 0  76 22 0  78 22 0  80 22 0  82 22 0  84 22 0  86 22 0  88 22 0  90 22 0  92 22 0  94 22 0  96 22 0  98 22 0  100 22 0  102 22 0  104 22 0  106 22 0  108 22 0  110 22 0  112 22 0  114 22 0  116 22 0  118 22 0  120 22 0  122 22 0  124 22 0  126 22 0  128 22 0  130 22 0  132 22 0  134 22 0  136 22 0  138 22 0  140 22 0  142 22 0  144 22 0  146 22 0  148 22 0  150 22 0  152 22 0  154 22 0  156 22 0  158 22 0  160 22 0  0 24 0  2 24 0  4 24 0  6 24 0  8 24 0  10 24 0  12 24 0  14 24 0  16 24 0  18 24 0  20 24 0  22 24 0  24 24 0  26 24 0  28 24 0  30 24 0  32 24 0  34 24 0  36 24 0  38 24 0  40 24 0  42 24 0  44 24 0  46 24 0  48 24 0  50 24 0  52 24 0  54 24 0  56 24 0  58 24 0  60 24 0  62 24 0  64 24 0  66 24 0  68 24 0  70 24 0  72 24 0  74 24 0  76 24 0  78 24 0  80 24 0  82 24 0  84 24 0  86 24 0  88 24 0  90 24 0  92 24 0  94 24 0  96 24 0  98 24 0  100 24 0  102 24 0  104 24 0  106 24 0  108 24 0  110 24 0  112 24 0  114 24 0  116 24 0  118 24 0  120 24 0  122 24 0  124 24 0  126 24 0  128 24 0  130 24 0  132 24 0  134 24 0  136 24 0  138 24 0  140 24 0  142 24 0  144 24 0  146 24 0  148 24 0  150 24 0  152 24 0  154 24 0  156 24 0  158 24 0  160 24 0  0 26 0  2 26 0  4 26 0  6 26 0  8 26 0  10 26 0  12 26 0  14 26 0  16 26 0  18 26 0  20 26 0  22 26 0  24 26 0  26 26 0  28 26 0  30 26 0  32 26 0  34 26 0  36 26 0  38 26 0  40 26 0  42 26 0  44 26 0  46 26 0  48 26 0  50 26 0  52 26 0  54 26 0  56 26 0  58 26 0  60 26 0  62 26 0  64 26 0  66 26 0  68 26 0  70 26 0  72 26 0  74 26 0  76 26 0  78 26 0  80 26 0  82 26 
[...]
<PointData  Vectors="f_16"> 
<DataArray  type="Float64"  Name="f_16"  NumberOfComponents="3" format="ascii">0.0000000000000000e+00 0.0000000000000000e+00 0.0000000000000000e+00  -1.6072790990554053e-01 -1.3910859452270016e-01 0.0000000000000000e+00  -2.8342722879683047e-01 -2.2074589991122875e-01 0.0000000000000000e+00  -3.9138272536470731e-01 -2.9342261347899812e-01 0.0000000000000000e+00  -4.9389906426367325e-01 -3.5980899019190443e-01 0.0000000000000000e+00  -5.9346085696212336e-01 -4.2439025246396955e-01 0.0000000000000000e+00  -6.9116947125987493e-01 -4.8915698398352420e-01 0.0000000000000000e+00  -7.8751047725892276e-01 -5.5541242608259689e-01 0.0000000000000000e+00  -8.8273131983475117e-01 -6.2398329700339905e-01 0.0000000000000000e+00  -9.7695736794186472e-01 -6.9543055574887069e-01 0.0000000000000000e+00  -1.0702496009732894e+00 -7.7014146884953971e-01 0.0000000000000000e+00  -1.1626326797440787e+00 -8.4838665730198903e-01 0.0000000000000000e+00  -1.2541105640989856e+00 -9.3035462637133359e-01 0.0000000000000000e+00  -1.3446755101698353e+00 -1.0161744039004474e+00 0.0000000000000000e+00  -1.4343134718202870e+00 -1.1059308994291690e+00 0.0000000000000000e+00  -1.5230074038843668e+00 -1.1996757091105319e+00 0.0000000000000000e+00  -1.6107392974320720e+00 -1.2974349261002853e+00 0.0000000000000000e+00  -1.6974914228360480e+00 -1.3992149171359185e+00 0.0000000000000000e+00  -1.7832470664976412e+00 -1.5050066749405475e+00 0.0000000000000000e+00  -1.8679909387401974e+00 -1.6147891474919684e+00 0.0000000000000000e+00  -1.9517093664667662e+00 -1.7285318156353866e+00 0.0000000000000000e+00  -2.0343903450907286e+00 -1.8461967077590258e+00 0.0000000000000000e+00  -2.1160234996089615e+00 -1.9677399858752005e+00 0.0000000000000000e+00  -2.1965999887143286e+00 -2.0931132008351447e+00 0.0000000000000000e+00  -2.2761123752247636e+00 -2.2222642891813758e+00 0.0000000000000000e+00  -2.3545544788833754e+00 -2.3551383663899208e+00 0.0000000000000000e+00  -2.4319212225721274e+00 -2.4916783585088780e+00 0.0000000000000000e+00  -2.5082084794442072e+00 -2.6318255048725105e+00 0.0000000000000000e+00  -2.5834129259485135e+00 -2.7755197576208825e+00 0.0000000000000000e+00  -2.6575319038885032e+00 -2.9227000984899409e+00 0.0000000000000000e+00  -2.7305632933230446e+00 -3.0733047892852303e+00 0.0000000000000000e+00  -2.8025053971395377e+00 -3.2272715692897531e+00 0.0000000000000000e+00  -2.8733568374114151e+00 -3.3845378103557344e+00 0.0000000000000000e+00  -2.9431164631228186e+00 -3.5450406384293176e+00 0.0000000000000000e+00  -3.0117832684506083e+00 -3.7087170286390521e+00 0.0000000000000000e+00  -3.0793563204987029e+00 -3.8755038797562058e+00 0.0000000000000000e+00  -3.1458346951515783e+00 -4.0453380727413508e+00 0.0000000000000000e+00  -3.2112174195286944e+00 -4.2181565171753794e+00 0.0000000000000000e+00  -3.2755034193606405e+00 -4.3938961885924410e+00 0.0000000000000000e+00  -3.3386914694554424e+00 -4.5724941590518631e+00 0.0000000000000000e+00  -3.4007801452675532e+00 -4.7538876226753111e+00 0.0000000000000000e+00  -3.4617677734127743e+00 -4.9380139173057813e+00 0.0000000000000000e+00  -3.5216523787827310e+00 -5.1248105428894277e+00 0.0000000000000000e+00  -3.5804316256979658e+00 -5.3142151766124277e+00 0.0000000000000000e+00  -3.6381027502981120e+00 -5.5061656842147944e+00 0.0000000000000000e+00  -3.6946624811035838e+00 -5.7006001262211132e+00 0.0000000000000000e+00  -3.7501069444038939e+00 -5.8974567570418666e+00 0.0000000000000000e+00  -3.8044315508482462e+00 -6.0966740139725415e+00 0.0000000000000000e+00  -3.8576308593595225e+00 -6.2981904920124991e+00 0.0000000000000000e+00  -3.9096984143015745e+00 -6.5019448991001179e+00 0.0000000000000000e+00  -3.9606265517583115e+00 -6.7078759847731950e+00 0.0000000000000000e+00  -4.0104061709121828e+00 -6.9159224333736740e+00 0.0000000000000000e+00  -4.0590264669517566e+00 -7.1260227106913820e+00 0.0000000000000000e+00  -4.1064746228469655e+00 -7.3381148503663969e+00 0.0000000000000000e+00  -4.1527354589117138e+00 -7.5521361634585009e+00 0.0000000000000000e+00  -4.1977910415959645e+00 -7.7680228514103256e+00 0.0000000000000000e+00  -4.2416202567560042e+00 -7.9857094993251643e+00 0.0000000000000000e+00  -4.2841983581665000e+00 -8.2051284233221224e+00 0.0000000000000000e+00  -4.3254965097644051e+00 -8.4262088431727147e+00 0.0000000000000000e+00  -4.3654813506168946e+00 -8.6488758501734964e+00 0.0000000000000000e+00  -4.4041146254609309e+00 -8.8730491413253336e+00 0.0000000000000000e+00  -4.4413529413688488e+00 -9.0986414958785353e+00 0.0000000000000000e+00  -4.4771477329114342e+00 -9.3255569812198971e+00 0.0000000000000000e+00  -4.5114455438861283e+00 -9.5536888945946128e+00 0.0000000000000000e+00  -4.5441887621703669e+00 -9.7829174785456079e+00 0.0000000000000000e+00  -4.5753169731368546e+00 -1.0013107494922082e+01 0.0000000000000000e+00  -4.6047691220263989e+00 -1.0244105808582360e+01 0.0000000000000000e+00  -4.6324866899678492e+00 -1.0475739220480600e+01 0.0000000000000000e+00  -4.6584180824058068e+00 -1.0707812901785259e+01 0.0000000000000000e+00  -4.6825243902623530e+00 -1.0940109913798254e+01 0.0000000000000000e+00  -4.7047865990381981e+00 -1.1172392445756952e+01 0.0000000000000000e+00  -4.7252141748426633e+00 -1.1404405551793861e+01 0.0000000000000000e+00  -4.7438547363627555e+00 -1.1635884303228373e+01 0.0000000000000000e+00  -4.7608042172190270e+00 -1.1866565378263498e+01 0.0000000000000000e+00  -4.7762165173002158e+00 -1.2096204185771915e+01 0.0000000000000000e+00  -4.7903110806371707e+00 -1.2324598690847882e+01 0.0000000000000000e+00  -4.8033759282258188e+00 -1.2551621245034157e+01 0.0000000000000000e+00  -4.8157617807015587e+00 -1.2777260010069520e+01 0.0000000000000000e+00  -4.8278578859087329e+00 -1.3001671270462435e+01 0.0000000000000000e+00  -4.8400263860334780e+00 -1.3225239991123329e+01 0.0000000000000000e+00  -4.8524369679318378e+00 -1.3448569665520946e+01 0.0000000000000000e+00  0.0000000000000000e+00 0.0000000000000000e+00 0.0000000000000000e+00  -9.9400717196367602e-02 -8.6427368349006536e-02 0.0000000000000000e+00  -2.1568338886390670e-01 -1.7543796901680742e-01 0.0000000000000000e+00  -3.2487399248593829e-01 -2.4929602812513721e-01 0.0000000000000000e+00  -4.2808673819928778e-01 -3.1741192636812382e-01 0.0000000000000000e+00  -5.2710860029074436e-01 -3.8313696299364758e-01 0.0000000000000000e+00  -6.2321606651622219e-01 -4.4883001313428411e-01 0.0000000000000000e+00  -7.1718076600213287e-01 -5.1586766176955967e-01 0.0000000000000000e+00  -8.0946676426296749e-01 -5.8514806835792255e-01 0.0000000000000000e+00  -9.0035697884194610e-01 -6.5726944172580093e-01 0.0000000000000000e+00  -9.9002601371990007e-01 -7.3264202712651361e-01 0.0000000000000000e+00  -1.0785819731149062e+00 -8.1154993001720521e-01 0.0000000000000000e+00  -1.1660911477556610e+00 -8.9418956757448553e-01 0.0000000000000000e+00  -1.2525930983400408e+00 -9.8069437587411046e-01 0.0000000000000000e+00  -1.3381101486021294e+00 -1.0711514619665081e+00 0.0000000000000000e+00  -1.4226535072427720e+00 -1.1656132065943061e+00 0.0000000000000000e+00  -1.5062272881514069e+00 -1.2641055870638387e+00 0.0000000000000000e+00  -1.5888311827905501e+00 -1.3666342889230136e+00 0.0000000000000000e+00  -1.6704622473025712e+00 -1.4731892813052803e+00 0.0000000000000000e+00  -1.7511160967431854e+00 -1.5837482959754217e+00 0.0000000000000000e+00  -1.8307876961939864e+00 -1.6982795059176707e+00 0.0000000000000000e+00  -1.9094718747721251e+00 -1.8167436077763770e+00 0.0000000000000000e+00  -1.9871636479241528e+00 -1.9390954527497437e+00 0.0000000000000000e+00  -2.0638584068559047e+00 -2.0652853305774173e+00 0.0000000000000000e+00  -2.1395520162327371e+00 -2.1952599838879183e+00 0.0000000000000000e+00  -2.2142408492121946e+00 -2.3289634110030719e+00 0.0000000000000000e+00  -2.2879217804926584e+00 -2.4663375015940292e+00 0.0000000000000000e+00  -2.3605921521496342e+00 -2.6073225395956294e+00 0.0000000000000000e+00  -2.4322497227986939e+00 -2.7518576003709239e+00 0.0000000000000000e+00  -2.5028926075552023e+00 -2.8998808635181130e+00 0.0000000000000000e+00  -2.5725192140119102e+00 -3.0513298584163553e+00 0.0000000000000000e+00  -2.6411281777923015e+00 -3.2061416562641365e+00 0.0000000000000000e+00  -2.7087182999979929e+00 -3.3642530197290155e+00 0.0000000000000000e+00  -2.7752884879378881e+00 -3.5256005192267961e+00 0.0000000000000000e+00  -2.8408376998225306e+00 -3.6901206231553201e+00 0.0000000000000000e+00  -2.9053648935686796e+00 -3.8577497680300223e+00 0.0000000000000000e+00  -2.9688689794413028e+00 -4.0284244133343154e+00 0.0000000000000000e+00  -3.0313487759286799e+00 -4.2020810849525514e+00 0.0000000000000000e+00  -3.0928029679749209e+00 -4.3786564102521437e+00 0.0000000000000000e+00  -3.1532300664625885e+00 -4.5580871471870186e+00 0.0000000000000000e+00  -3.2126283676307743e+00 -4.7403102091740905e+00 0.0000000000000000e+00  -3.2709959109190918e+00 -4.9252626869178302e+00 0.0000000000000000e+00  -3.3283304335373867e+00 -5.1128818677963830e+00 0.0000000000000000e+00  -3.3846293198694308e+00 -5.3031052528468550e+00 0.0000000000000000e+00  -3.4398895436249814e+00 -5.4958705707672690e+00 0.0000000000000000e+00  -3.4941076004608096e+00 -5.6911157876554999e+00 0.0000000000000000e+00  -3.5472794286050475e+00 -5.8887791103960083e+00 0.0000000000000000e+00  -3.5994003148540754e+00 -6.0887989806438805e+00 0.0000000000000000e+00  -3.6504647831888732e+00 -6.2911140551998690e+00 0.0000000000000000e+00  -3.7004664632104887e+00 -6.4956631671731166e+00 0.0000000000000000e+00  -3.7493979356678429e+00 -6.7023852606415666e+00 0.0000000000000000e+00  -3.7972505526090208e+00 -6.9112192894961515e+00 0.0000000000000000e+00  -3.8440142302151608e+00 -7.1221040687523240e+00 0.0000000000000000e+00  -3.8896772132878779e+00 -7.3349780638055524e+00 0.0000000000000000e+00  -3.9342258118042772e+00 -7.5497790999001255e+00 0.0000000000000000e+00  -3.9776441121153314e+00 -7.7664439705289530e+00 0.0000000000000000e+00  -4.0199136684752261e+00 -7.9849079197263482e+00 0.0000000000000000e+00  -4.0610131849281057e+00 -8.2051039695269932e+00 0.0000000000000000e+00  -4.1009182034612950e+00 -8.4269620607066464e+00 0.0000000000000000e+00  -4.1396008220998768e+00 -8.6504079730344525e+00 0.0000000000000000e+00  -4.1770294765919251e+00 -8.8753619917721061e+00 0.0000000000000000e+00  -4.2131688317619700e+00 -9.1017372916666055e+00 0.0000000000000000e+00  -4.2479798435484843e+00 -9.3294380204278813e+00 0.0000000000000000e+00  -4.2814200698887825e+00 -9.5583570835859657e+00 0.0000000000000000e+00  -4.3134443270730989e+00 -9.7883736653116458e+00 0.0000000000000000e+00  -4.3440058061388527e+00 -1.0019350569429038e+01 0.0000000000000000e+00  -4.3730577781758866e+00 -1.0251131535732823e+01 0.0000000000000000e+00  -4.4005560231707719e+00 -1.0483538782444365e+01 0.0000000000000000e+00  -4.4264621072128767e+00 -1.0716371147866317e+01 0.0000000000000000e+00  -4.4507475982157443e+00 -1.0949403351155288e+01 0.0000000000000000e+00  -4.4733992394758832e+00 -1.1182387056621321e+01 0.0000000000000000e+00  -4.4944249810311199e+00 -1.1415054595173917e+01 0.0000000000000000e+00  -4.5138605890705792e+00 -1.1647126353147074e+01 0.0000000000000000e+00  -4.5317763042896484e+00 -1.1878322966671943e+01 0.0000000000000000e+00  -4.5482826961357556e+00 -1.2108383555643201e+01 0.0000000000000000e+00  -4.5635344646752110e+00 -1.2337091319341294e+01 0.0000000000000000e+00  -4.5777305097006664e+00 -1.2564307948915310e+01 0.0000000000000000e+00  -4.5911083267178157e+00 -1.2790018424080182e+01 0.0000000000000000e+00  -4.6039316134619526e+00 -1.3014387080633032e+01 0.0000000000000000e+00  -4.6164758229100569e+00 -1.3237817683244932e+01 0.0000000000000000e+00  -4.6290095386185737e+00 -1.3460991008035343e+01 0.0000000000000000e+00  0.0000000000000000e+00 0.0000000000000000e+00 0.0000000000000000e+00  -8.3914724764397181e-02 -6.3056371451778170e-02 0.0000000000000000e+00  -1.7730595576299979e-01 -1.3650939529225350e-01 0.0000000000000000e+00  -2.7603141556151234e-01 -2.0873162366717624e-01 0.0000000000000000e+00  -3.7346045026767327e-01 -2.7693553339948174e-01 0.0000000000000000e+00  -4.6843539135363704e-01 -3.4346702066572388e-01 0.0000000000000000e+00  -5.6099100322955897e-01 -4.1002194572640449e-01 0.0000000000000000e+00  -6.5145625953579356e-01 -4.7788997597651928e-01 0.0000000000000000e+00  -7.4014728352775716e-01 -5.4795046986913210e-01 0.0000000000000000e+00  -8.2731194610578351e-01 -6.2081329541361341e-01 0.0000000000000000e+00  -9.1313165675214991e-01 -6.9690224939505319e-01 0.0000000000000000e+00  -9.9773564539051651e-01 -7.7651301323476629e-01 0.0000000000000000e+00  -1.0812147032873300e+00 -8.5985057129046516e-01 0.0000000000000000e+00  -1.1636319833487625e+00 -9.4705434177662962e-01 0.0000000000000000e+00  -1.2450309588909019e+00 -1.0382153977483826e+00 0.0000000000000000e+00  -1.3254411613223818e+00 -1.1333885929643073e+00 0.0000000000000000e+00  -1.4048822879063814e+00 -1.2326012977803109e+00 0.0000000000000000e+00  -1.4833671387566798e+00 -1.3358598231654808e+00 0.0000000000000000e+00  -1.5609037170495172e+00 -1.4431542271508813e+00 0.0000000000000000e+00  -1.6374967301556231e+00 -1.5544619632782581e+00 0.0000000000000000e+00  -1.7131486600924877e+00 -1.6697506826410640e+00 0.0000000000000000e+00  -1.7878605229624032e+00 -1.7889804058251983e+00 0.0000000000000000e+00  -1.8616324029577425e+00 -1.9121052182497715e+00 0.0000000000000000e+00  -1.9344638226061051e+00 -2.0390746001031808e+00 0.0000000000000000e+00  -2.0063539940361053e+00 -2.1698344729689421e+00 0.0000000000000000e+00  -2.0773019840000035e+00 -2.3043280248102076e+00 0.0000000000000000e+00  -2.1473068167146803e+00 -2.4424963603645975e+00 0.0000000000000000e+00  -2.2163675322714087e+00 -2.5842790133439948e+00 0.0000000000000000e+00  -2.2844832137287177e+00 -2.7296143489258577e+00 0.0000000000000000e+00  -2.3516529925660588e+00 -2.8784398790563910e+00 0.0000000000000000e+00  -2.4178760396076906e+00 -3.0306925085153109e+00 0.0000000000000000e+00  -2.4831515465926648e+00 -3.1863087261415655e+00 0.0000000000000000e+00  -2.5474787021014369e+00 -3.3452247528268271e+00 0.0000000000000000e+00  -2.6108566644320619e+00 -3.5073766556624779e+00 0.0000000000000000e+00  -2.6732845331610298e+00 -3.6727004358410347e+00 0.0000000000000000e+00  -2.7347613204602457e+00 -3.8411320964646456e+00 0.0000000000000000e+00  -2.7952859227234308e+00 -4.0126076952256193e+00 0.0000000000000000e+00  -2.8548570926451293e+00 -4.1870633859378810e+00 0.0000000000000000e+00  -2.9134734115650556e+00 -4.3644354520662025e+00 0.0000000000000000e+00  -2.9711332616178980e+00 -4.5446603346821286e+00 0.0000000000000000e+00  -3.0278347969970194e+00 -4.7276746566370713e+00 0.0000000000000000e+00  -3.0835759134371536e+00 -4.9134152441521550e+00 0.0000000000000000e+00  -3.1383542148369021e+00 -5.1018191464507687e+00 0.0000000000000000e+00  -3.1921669757704323e+00 -5.2928236534729178e+00 0.0000000000000000e+00  -3.2450110984761906e+00 -5.4863663110786733e+00 0.0000000000000000e+00  -3.2968830627586518e+00 -5.6823849324376052e+00 0.0000000000000000e+00  -3.3477788671007400e+00 -5.8808176034748803e+00 0.0000000000000000e+00  -3.3976939591672624e+00 -6.0816026792622369e+00 0.0000000000000000e+00  -3.4466231537964167e+00 -6.2846787670584758e+00 0.0000000000000000e+00  -3.4945605365462860e+00 -6.4899846902713527e+00 0.0000000000000000e+00  -3.5414993509134867e+00 -6.6974594258800231e+00 0.0000000000000000e+00  -3.5874318675090957e+00 -6.9070420057748851e+00 0.0000000000000000e+00  -3.6323492338126138e+00 -7.1186713699957593e+00 0.0000000000000000e+00  -3.6762413036939421e+00 -7.3322861569513877e+00 0.0000000000000000e+00  -3.7190964467816201e+00 -7.5478244123837417e+00 0.0000000000000000e+00  -3.7609013390722961e+00 -7.7652231951517674e+00 0.0000000000000000e+00  -3.8016407380595005e+00 -7.9844180539858636e+00 0.0000000000000000e+00  -3.8412972482804810e+00 -8.2053423454706174e+00 0.0000000000000000e+00  -3.8798510867457345e+00 -8.4279263601035339e+00 0.0000000000000000e+00  -3.9172798624721392e+00 -8.6520962210794110e+00 0.0000000000000000e+00  -3.9535583905632743e+00 -8.8777725205663494e+00 0.0000000000000000e+00  -3.9886585692584906e+00 -9.1048686622678510e+00 0.0000000000000000e+00  -4.0225493583642127e+00 -9.3332888892233186e+00 0.0000000000000000e+00  -4.0551969096326079e+00 -9.5629259950280598e+00 0.0000000000000000e+00  -4.0865649138481386e+00 -9.7936587486587694e+00 0.0000000000000000e+00  -4.1166152449967273e+00 -1.0025349112240880e+01 0.0000000000000000e+00  -4.1453089974131476e+00 -1.0257839402083825e+01 0.0000000000000000e+00  -4.1726080243062968e+00 -1.0490949640451513e+01 0.0000000000000000e+00  -4.1984770905913837e+00 -1.0724475471570839e+01 0.0000000000000000e+00  -4.2228867419780629e+00 -1.0958187169776616e+01 0.0000000000000000e+00  -4.2458169556135541e+00 -1.1191830444566843e+01 0.0000000000000000e+00  -4.2672615636915632e+00 -1.1425129933548501e+01 0.0000000000000000e+00  -4.2872333211050204e+00 -1.1657796448501211e+01 0.0000000000000000e+00  -4.3057693230420337e+00 -1.1889539173719642e+01 0.0000000000000000e+00  -4.3229362980554553e+00 -1.2120084076020147e+01 0.0000000000000000e+00  -4.3388351991928191e+00 -1.2349199727405079e+01 0.0000000000000000e+00  -4.3536047205469890e+00 -1.2576731456604875e+01 0.0000000000000000e+00  -4.3674243508689683e+00 -1.2802643865018988e+01 0.0000000000000000e+00  -4.3805200813466678e+00 -1.3027069139868834e+01 0.0000000000000000e+00  -4.3931770911131691e+00 -1.3250353136863117e+01 0.0000000000000000e+00  -4.4057606337761648e+00 -1.3473119299811126e+01 0.0000000000000000e+00  0.0000000000000000e+00 0.0000000000000000e+00 0.0000000000000000e+00  -7.3640877710182670e-02 -4.9445125331674639e-02 0.0000000000000000e+00  -1.5477686299588692e-01 -1.1020973213428434e-01 0.0000000000000000e+00  -2.4114202135222951e-01 -1.7533575485525837e-01 0.0000000000000000e+00  -3.2974720515523787e-01 -2.4117896706921640e-01 0.0000000000000000e+00  -4.1812746588182315e-01 -3.0708803905675458e-01 0.0000000000000000e+00  -5.0534178735213120e-01 -3.7380527169082278e-01 0.0000000000000000e+00  -5.9110249526144232e-01 -4.4214455368794475e-01 0.0000000000000000e+00  -6.7539766161079617e-01 -5.1280376616302559e-01 0.0000000000000000e+00  -7.5830648205527706e-01 -5.8631555397068291e-01 0.0000000000000000e+00  -8.3992727094335429e-01 -6.6307320279134718e-01 0.0000000000000000e+00  -9.2035095871545958e-01 -7.4336080796071335e-01 0.0000000000000000e+00  -9.9965343364232517e-01 -8.2737975238793426e-01 0.0000000000000000e+00  -1.0778950242289171e+00 -9.1526898991096195e-01 0.0000000000000000e+00  -1.1551224252757188e+00 -1.0071202043559635e+00 0.0000000000000000e+00  -1.2313711891965280e+00 -1.1029890590623521e+00 0.0000000000000000e+00  -1.3066680835348090e+00 -1.2029035903912579e+00 0.0000000000000000e+00  -1.3810330942560065e+00 -1.3068705247668992e+00 0.0000000000000000e+00  -1.4544810441076803e+00 -1.4148800794729819e+00 0.0000000000000000e+00  -1.5270228640393408e+00 -1.5269096449846074e+00 0.0000000000000000e+00  -1.5986665747395650e+00 -1.6429266324131861e+00 0.0000000000000000e+00  -1.6694180349320216e+00 -1.7628906901132306e+00 0.0000000000000000e+00  -1.7392815059264823e+00 -1.8867554381227019e+00 0.0000000000000000e+00  -1.8082600732936243e+00 -2.0144698302548041e+00 0.0000000000000000e+00  -1.8763559584419307e+00 -2.1459792260996013e+00 0.0000000000000000e+00  -1.9435707459650204e+00 -2.2812262353896084e+00 0.0000000000000000e+00  -2.0099055469795348e+00 -2.4201513827505829e+00 0.0000000000000000e+00  -2.0753611141600783e+00 -2.5626936301864678e+00 0.0000000000000000e+00  -2.1399379206134652e+00 -2.7087907866409138e+00 0.0000000000000000e+00  -2.2036362119370705e+00 -2.8583798278864356e+00 0.0000000000000000e+00  -2.2664560386165777e+00 -3.0113971452962827e+00 0.0000000000000000e+00  -2.3283972742061252e+00 -3.1677787383895035e+00 0.0000000000000000e+00  -2.3894596233941958e+00 -3.3274603631481612e+00 0.0000000000000000e+00  -2.4496426230091175e+00 -3.4