<?xml version="1.0"?>
<VTKFile type="UnstructuredGrid"  version="0.1"  >
<UnstructuredGrid>
<Piece  NumberOfPoints="3751" NumberOfCells="3600">
<Points>
<DataArray  type="Float64"  NumberOfComponents="3"  format="ascii">0 0 0  0.001 0 0  0.002 0 0  0.003 0 0  0.004 0 0  0.005 0 0  0.006 0 0  0.007 0 0  0.008 0 0  0.009000000000000001 0 0  0.01 0 0  0.011 0 0  0.012 0 0  0.013 0 0  0.014 0 0  0.015 0 0  0.016 0 0  0.017 0 0  0.018 0 0  0.019 0 0  0.02 0 0  0.021 0 0  0.022 0 0  0.023 0 0  0.024 0 0  0.025 0 0  0.026 0 0  0.027 0 0  0.028 0 0  0.029 0 0  0.03 0 0  0.031 0 0  0.032 0 0  0.033 0 0  0.034 0 0  0.035 0 0  0.036 0 0  0.037 0 0  0.038 0 0  0.039 0 0  0.04 0 0  0.041 0 0  0.042 0 0  0.043 0 0  0.044 0 0  0.045 0 0  0.046 0 0  0.047 0 0  0.048 0 0  0.049 0 0  0.05 0 0  0.051 0 0  0.052 0 0  0.053 0 0  0.054 0 0  0.055 0 0  0.056 0 0  0.057 0 0  0.058 0 0  0.059 0 0  0.05999999999999999 0 0  0.06099999999999999 0 0  0.06199999999999999 0 0  0.063 0 0  0.064 0 0  0.065 0 0  0.066 0 0  0.06699999999999999 0 0  0.068 0 0  0.06899999999999999 0 0  0.07000000000000001 0 0  0.07099999999999999 0 0  0.07200000000000001 0 0  0.073 0 0  0.074 0 0  0.075 0 0  0.076 0 0  0.077 0 0  0.078 0 0  0.079 0 0  0.08 0 0  0.08099999999999999 0 0  0.082 0 0  0.08299999999999999 0 0  0.08400000000000001 0 0  0.08499999999999999 0 0  0.08600000000000001 0 0  0.08699999999999999 0 0  0.08799999999999999 0 0  0.089 0 0  0.09 0 0  0.091 0 0  0.092 0 0  0.093 0 0  0.094 0 0  0.095 0 0  0.096 0 0  0.09699999999999999 0 0  0.098 0 0  0.09899999999999999 0 0  0.1 0 0  0.101 0 0  0.102 0 0  0.103 0 0  0.104 0 0  0.105 0 0  0.106 0 0  0.107 0 0  0.108 0 0  0.109 0 0  0.11 0 0  0.111 0 0  0.112 0 0  0.113 0 0  0.114 0 0  0.115 0 0  0.116 0 0  0.117 0 0  0.118 0 0  0.119 0 0  0.12 0 0  0 0.001 0  0.001 0.001 0  0.002 0.001 0  0.003 0.001 0  0.004 0.001 0  0.005 0.001 0  0.006 0.001 0  0.007 0.001 0  0.008 0.001 0  0.009000000000000001 0.001 0  0.01 0.001 0  0.011 0.001 0  0.012 0.001 0  0.013 0.001 0  0.014 0.001 0  0.015 0.001 0  0.016 0.001 0  0.017 0.001 0  0.018 0.001 0  0.019 0.001 0  0.02 0.001 0  0.021 0.001 0  0.022 0.001 0  0.023 0.001 0  0.024 0.001 0  0.025 0.001 0  0.026 0.001 0  0.027 0.001 0  0.028 0.001 0  0.029 0.001 0  0.03 0.001 0  0.031 0.001 0  0.032 0.001 0  0.033 0.001 0  0.034 0.001 0  0.035 0.001 0  0.036 0.001 0  0.037 0.001 0  0.038 0.001 0  0.039 0.001 0  0.04 0.001 0  0.041 0.001 0  0.042 0.001 0  0.043 0.001 0  0.044 0.001 0  0.045 0.001 0  0.046 0.001 0  0.047 0.001 0  0.048 0.001 0  0.049 0.001 0  0.05 0.001 0  0.051 0.001 0  0.052 0.001 0  0.053 0.001 0  0.054 0.001 0  0.055 0.001 0  0.056 0.001 0  0.057 0.001 0  0.058 0.001 0  0.059 0.001 0  0.05999999999999999 0.001 0  0.06099999999999999 0.001 0  0.06199999999999999 0.001 0  0.063 0.001 0  0.064 0.001 0  0.065 0.001 0  0.066 0.001 0  0.06699999999999999 0.001 0  0.068 0.001 0  0.06899999999999999 0.001 0  0.07000000000000001 0.001 0  0.07099999999999999 0.001 0  0.07200000000000001 0.001 0  0.073 0.001 0  0.074 0.001 0  0.075 0.001 0  0.076 0.001 0  0.077 0.001 0  0.078 0.001 0  0.079 0.001 0  0.08 0.001 0  0.08099999999999999 0.001 0  0.082 0.001 0  0.08299999999999999 0.001 0  0.08400000000000001 0.001 0  0.08499999999999999 0.001 0  0.08600000000000001 0.001 0  0.08699999999999999 0.001 0  0.08799999999999999 0.001 0  0.089 0.001 0  0.09 0.001 0  0.091 0.001 0  0.092 0.001 0  0.093 0.001 0  0.094 0.001 0  0.095 0.001 0  0.096 0.001 0  0.09699999999999999 0.001 0  0.098 0.001 0  0.09899999999999999 0.001 0  0.1 0.001 0  0.101 0.001 0  0.102 0.001 0  0.103 0.001 0  0.104 0.001 0  0.105 0.001 0  0.106 0.001 0  0.107 0.001 0  0.108 0.001 0  0.109 0.001 0  0.11 0.001 0  0.111 0.001 0  0.112 0.001 0  0.113 0.001 0  0.114 0.001 0  0.115 0.001 0  0.116 0.001 0  0.117 0.001 0  0.118 0.001 0  0.119 0.001 0  0.12 0.001 0  0 0.002 0  0.001 0.002 0  0.002 0.002 0  0.003 0.002 0  0.004 0.002 0  0.005 0.002 0  0.006 0.002 0  0.007 0.002 0  0.008 0.002 0  0.009000000000000001 0.002 0  0.01 0.002 0  0.011 0.002 0  0.012 0.002 0  0.013 0.002 0  0.014 0.002 0  0.015 0.002 0  0.016 0.002 0  0.017 0.002 0  0.018 0.002 0  0.019 0.002 0  0.02 0.002 0  0.021 0.002 0  0.022 0.002 0  0.023 0.002 0  0.024 0.002 0  0.025 0.002 0  0.026 0.002 0  0.027 0.002 0  0.028 0.002 0  0.029 0.002 0  0.03 0.002 0  0.031 0.002 0  0.032 0.002 0  0.033 0.002 0  0.034 0.002 0  0.035 0.002 0  0.036 0.002 0  0.037 0.002 0  0.038 0.002 0  0.039 0.002 0  0.04 0.002 0  0.041 0.002 0  0.042 0.002 0  0.043 0.002 0  0.044 0.002 0  0.045 0.002 0  0.046 0.002 0  0.047 0.002 0  0.048 0.002 0  0.049 0.002 0  0.05 0.002 0  0.051 0.002 0  0.052 0.002 0  0.053 0.002 0  0.054 0.002 0  0.055 0.002 0  0.056 0.002 0  0.057 0.002 0  0.058 0.002 0  0.059 0.002 0  0.05999999999999999 0.002 0  0.06099999999999999 0.002 0  0.06199999999999999 0.002 0  0.063 0.002 0  0.064 0.002 0  0.065 0.002 0  0.066 0.002 0  0.06699999999999999 0.002 0  0.068 0.002 0  0.06899999999999999 0.002 0  0.07000000000000001 0.002 0  0.07099999999999999 0.002 0  0.07200000000000001 0.002 0  0.073 0.002 0  0.074 0.002 0  0.075 0.002 0  0.076 0.002 0  0.077 0.002 0  0.078 0.002 0  0.079 0.002 0  0.08 0.002 0  0.08099999999999999 0.002 0  0.082 0.002 0  0.08299999999999999 0.002 0  0.08400000000000001 0.002 0  0.08499999999999999 0.002 0  0.08600000000000001 0.002 0  0.08699999999999999 0.002 0  0.08799999999999999 0.002 0  0.089 0.002 0  0.09 0.002 0  0.091 0.002 0  0.092 0.002 0  0.093 0.002 0  0.094 0.002 0  0.095 0.002 0  0.096 0.002 0  0.09699999999999999 0.002 0  0.098 0.002 0  0.09899999999999999 0.002 0  0.1 0.002 0  0.101 0.002 0  0.102 0.002 0  0.103 0.002 0  0.104 0.002 0  0.105 0.002 0  0.106 0.002 0  0.107 0.002 0  0.108 0.002 0  0.109 0.002 0  0.11 0.002 0  0.111 0.002 0  0.112 0.002 0  0.113 0.002 0  0.114 0.002 0  0.115 0.002 0  0.116 0.002 0  0.117 0.002 0  0.118 0.002 0  0.119 0.002 0  0.12 0.002 0  0 0.003 0  0.001 0.003 0  0.002 0.003 0  0.003 0.003 0  0.004 0.003 0  0.005 0.003 0  0.006 0.003 0  0.007 0.003 0  0.008 0.003 0  0.009000000000000001 0.003 0  0.01 0.003 0  0.011 0.003 0  0.012 0.003 0  0.013 0.003 0  0.014 0.003 0  0.015 0.003 0  0.016 0.003 0  0.017 0.003 0  0.018 0.003 0  0.019 0.003 0  0.02 0.003 0  0.021 0.003 0  0.022 0.003 0  0.023 0.003 0  0.024 0.003 0  0.025 0.003 0  0.026 0.003 0  0.027 0.003 0  0.028 0.003 0  0.029 0.003 0  0.03 0.003 0  0.031 0.003 0  0.032 0.003 0  0.033 0.003 0  0.034 0.003 0  0.035 0.003 0  0.036 0.003 0  0.037 0.003 0  0.038 0.003 0  0.039 0.003 0  0.04 0.003 0  0.041 0.003 0  0.042 0.003 0  0.043 0.003 0  0.044 0.003 0  0.045 0.003 0  0.046 0.003 0  0.047 0.003 0  0.048 0.003 0  0.049 0.003 0  0.05 0.003 0  0.051 0.003 0  0.052 0.003 0  0.053 0.003 0  0.054 0.003 0  0.055 0.003 0  0.056 0.003 0  0.057 0.003 0  0.058 0.003 0  0.059 0.003 0  0.05999999999999999 0.003 0  0.06099999999999999 0.003 0  0.06199999999999999 0.003 0  0.063 0.003 0  0.064 0.003 0  0.065 0.003 0  0.066 0.003 0  0.06699999999999999 0.003 0  0.068 0.003 0  0.06899999999999999 0.003 0  0.07000000000000001 0.003 0  0.07099999999999999 0.003 0  0.07200000000000001 0.003 0  0.073 0.003 0  0.074 0.003 0  0.075 0.003 0  0.076 0.003 0  0.077 0.003 0  0.078 0.003 0  0.079 0.003 0  0.08 0.003 0  0.08099999999999999 0.003 0  0.082 0.003 0  0.08299999999999999 0.003 0  0.08400000000000001 0.003 0  0.08499999999999999 0.003 0  0.08600000000000001 0.003 0  0.08699999999999999 0.003 0  0.08799999999999999 0.003 0  0.089 0.003 0  0.09 0.003 0  0.091 0.003 0  0.092 0.003 0  0.093 0.003 0  0.094 0.003 0  0.095 0.003 0  0.096 0.003 0  0.09699999999999999 0.003 0  0.098 0.003 0  0.09899999999999999 0.003 0  0.1 0.003 0  0.101 0.003 0  0.102 0.003 0  0.103 0.003 0  0.104 0.003 0  0.105 0.003 0  0.106 0.003 0  0.107 0.003 0  0.108 0.003 0  0.109 0.003 0  0.11 0.003 0  0.111 0.003 0  0.112 0.003 0  0.113 0.003 0  0.114 0.003 0  0.115 0.003 0  0.116 0.003 0  0.117 0.003 0  0.118 0.003 0  0.119 0.003 0  0.12 0.003 0  0 0.004 0  0.001 0.004 0  0.002 0.004 0  0.003 0.004 0  0.004 0.004 0  0.005 0.004 0  0.006 0.004 0  0.007 0.004 0  0.008 0.004 0  0.009000000000000001 0.004 0  0.01 0.004 0  0.011 0.004 0  0.012 0.004 0  0.013 0.004 0  0.014 0.004 0  0.015 0.004 0  0.016 0.004 0  0.017 0.004 0  0.018 0.004 0  0.019 0.004 0  0.02 0.004 0  0.021 0.004 0  0.022 0.004 0  0.023 0.004 0  0.024 0.004 0  0.025 0.004 0  0.026 0.004 0  0.027 0.004 0  0.028 0.004 0  0.029 0.004 0  0.03 0.004 0  0.031 0.004 0  0.032 0.004 0  0.033 0.004 0  0.034 0.004 0  0.035 0.004 0  0.036 0.004 0  0.037 0.004 0  0.038 0.004 0  0.039 0.004 0  0.04 0.004 0  0.041 0.004 0  0.042 0.004 0  0.043 0.004 0  0.044 0.004 0  0.045 0.004 0  0.046 0.004 0  0.047 0.004 0  0.048 0.004 0  0.049 0.004 0  0.05 0.004 0  0.051 0.004 0  0.052 0.004 0  0.053 0.004 0  0.054 0.004 0  0.055 0.004 0  0.056 0.004 0  0.057 0.004 0  0.058 0.004 0  0.059 0.004 0  0.05999999999999999 0.004 0  0.06099999999999999 0.004 0  0.06199999999999999 0.004 0  0.063 0.004 0  0.064 0.004 0  0.065 0.004 0  0.066 0.004 0  0.06699999999999999 0.004 0  0.068 0.004 0  0.06899999999999999 0.004 0  0.07000000000000001 0.004 0  0.07099999999999999 0.004 0  0.07200000000000001 0.004 0  0.073 0.004 0  0.074 0.004 0  0.075 0.004 0  0.076 0.004 0  0.077 0.004 0  0.078 0.004 0  0.079 0.004 0  0.08 0.004 0  0.08099999999999999 0.004 0  0.082 0.004 0  0.08299999999999999 0.004 0  0.08400000000000001 0.004 0  0.08499999999999999 0.004 0  0.08600000000000001 0.004 0  0.08699999999999999 0.004 0  0.08799999999999999 0.004 0  0.089 0.004 0  0.09 0.004 0  0.091 0.004 0  0.092 0.004 0  0.093 0.004 0  0.094 0.004 0  0.095 0.004 0  0.096 0.004 0  0.09699999999999999 0.004 0  0.098 0.004 0  0.09899999999999999 0.004 0  0.1 0.004 0  0.101 0.004 0  0.102 0.004 0  0.103 0.004 0  0.104 0.004 0  0.105 0.004 0  0.106 0.004 0  0.107 0.004 0  0.108 0.004 0  0.109 0.004 0  0.11 0.004 0  0.111 0.004 0  0.112 0.004 0  0.113 0.004 0  0.114 0.004 0  0.115 0.004 0  0.116 0.004 0  0.117 0.004 0  0.118 0.004 0  0.119 0.004 0  0.12 0.004 0 
[...]
<PointData  Vectors="f_15"> 
<DataArray  type="Float64"  Name="f_15"  NumberOfComponents="3" format="ascii">0.0000000000000000e+00 0.0000000000000000e+00 0.0000000000000000e+00  -2.8680355050028069e-04 -2.4765763429444675e-04 0.0000000000000000e+00  -5.7101673413596798e-04 -3.3787898662471715e-04 0.0000000000000000e+00  -8.4584299256544452e-04 -4.0597693504401439e-04 0.0000000000000000e+00  -1.1231220853250192e-03 -4.6632388948065215e-04 0.0000000000000000e+00  -1.4057235993835758e-03 -5.3149768897071297e-04 0.0000000000000000e+00  -1.6941098061165744e-03 -6.0814690621357830e-04 0.0000000000000000e+00  -1.9877292071337235e-03 -7.0029149324601241e-04 0.0000000000000000e+00  -2.2858027213117291e-03 -8.1016066733748603e-04 0.0000000000000000e+00  -2.5875755285734892e-03 -9.3885689601198147e-04 0.0000000000000000e+00  -2.8924034559200270e-03 -1.0867510045767855e-03 0.0000000000000000e+00  -3.1997706456564248e-03 -1.2537481623562121e-03 0.0000000000000000e+00  -3.5092840660503333e-03 -1.4394666818363048e-03 0.0000000000000000e+00  -3.8206604734568540e-03 -1.6433598047854300e-03 0.0000000000000000e+00  -4.1337116136876285e-03 -1.8647977782093111e-03 0.0000000000000000e+00  -4.4483295873365509e-03 -2.1031219636376882e-03 0.0000000000000000e+00  -4.7644730581784768e-03 -2.3576792065083882e-03 0.0000000000000000e+00  -5.0821545977785976e-03 -2.6278424489767221e-03 0.0000000000000000e+00  -5.4014293334078856e-03 -2.9130219505723626e-03 0.0000000000000000e+00  -5.7223849897184813e-03 -3.2126702708260234e-03 0.0000000000000000e+00  -6.0451333414571796e-03 -3.5262832532170982e-03 0.0000000000000000e+00  -6.3698030272557743e-03 -3.8533985670501977e-03 0.0000000000000000e+00  -6.6965336227584457e-03 -4.1935928643409047e-03 0.0000000000000000e+00  -7.0254708392994804e-03 -4.5464782513732508e-03 0.0000000000000000e+00  -7.3567627006798425e-03 -4.9116985243832225e-03 0.0000000000000000e+00  -7.6905565509749777e-03 -5.2889254472777139e-03 0.0000000000000000e+00  -8.0269967557980923e-03 -5.6778552340276236e-03 0.0000000000000000e+00  -8.3662229738197969e-03 -6.0782053224831380e-03 0.0000000000000000e+00  -8.7083688915475781e-03 -6.4897114775087986e-03 0.0000000000000000e+00  -9.0535613304522384e-03 -6.9121252307514187e-03 0.0000000000000000e+00  -9.4019196504125432e-03 -7.3452116459295511e-03 0.0000000000000000e+00  -9.7535553866422431e-03 -7.7887473880925489e-03 0.0000000000000000e+00  -1.0108572068635691e-02 -8.2425190700220717e-03 0.0000000000000000e+00  -1.0467065179289976e-02 -8.7063218469567299e-03 0.0000000000000000e+00  -1.0829122220399437e-02 -9.1799582308645759e-03 0.0000000000000000e+00  -1.1194822857373759e-02 -9.6632370967482430e-03 0.0000000000000000e+00  -1.1564239121505783e-02 -1.0155972855408150e-02 0.0000000000000000e+00  -1.1937435652596340e-02 -1.0657984769363485e-02 0.0000000000000000e+00  -1.2314469968395950e-02 -1.1169096391017090e-02 0.0000000000000000e+00  -1.2695392750288888e-02 -1.1689135104510194e-02 0.0000000000000000e+00  -1.3080248137043924e-02 -1.2217931754962484e-02 0.0000000000000000e+00  -1.3469074020388647e-02 -1.2755320350884435e-02 0.0000000000000000e+00  -1.3861902337714345e-02 -1.3301137827458839e-02 0.0000000000000000e+00  -1.4258759358455282e-02 -1.3855223860108760e-02 0.0000000000000000e+00  -1.4659665961667581e-02 -1.4417420719301776e-02 0.0000000000000000e+00  -1.5064637903105754e-02 -1.4987573158893527e-02 0.0000000000000000e+00  -1.5473686070698640e-02 -1.5565528331498851e-02 0.0000000000000000e+00  -1.5886816727793084e-02 -1.6151135725410382e-02 0.0000000000000000e+00  -1.6304031743889461e-02 -1.6744247118476243e-02 0.0000000000000000e+00  -1.6725328812860096e-02 -1.7344716545115303e-02 0.0000000000000000e+00  -1.7150701658837159e-02 -1.7952400273304189e-02 0.0000000000000000e+00  -1.7580140230095707e-02 -1.8567156788927713e-02 0.0000000000000000e+00  -1.8013630881351755e-02 -1.9188846785355901e-02 0.0000000000000000e+00  -1.8451156544954557e-02 -1.9817333156507022e-02 0.0000000000000000e+00  -1.8892696891484661e-02 -2.0452480991987185e-02 0.0000000000000000e+00  -1.9338228480280852e-02 -2.1094157573171238e-02 0.0000000000000000e+00  -1.9787724900415790e-02 -2.1742232369315332e-02 0.0000000000000000e+00  -2.0241156902625658e-02 -2.2396577032974506e-02 0.0000000000000000e+00  -2.0698492522677386e-02 -2.3057065394145565e-02 0.0000000000000000e+00  -2.1159697196631098e-02 -2.3723573452670576e-02 0.0000000000000000e+00  -2.1624733868427264e-02 -2.4395979368524567e-02 0.0000000000000000e+00  -2.2093563090200701e-02 -2.5074163449675446e-02 0.0000000000000000e+00  -2.2566143115697788e-02 -2.5758008137247948e-02 0.0000000000000000e+00  -2.3042429987152148e-02 -2.6447397987749782e-02 0.0000000000000000e+00  -2.3522377615957858e-02 -2.7142219652127899e-02 0.0000000000000000e+00  -2.4005937857471047e-02 -2.7842361851419445e-02 0.0000000000000000e+00  -2.4493060580270842e-02 -2.8547715348745138e-02 0.0000000000000000e+00  -2.4983693730222339e-02 -2.9258172917365786e-02 0.0000000000000000e+00  -2.5477783389708381e-02 -2.9973629304485026e-02 0.0000000000000000e+00  -2.5975273832436217e-02 -3.0693981190434816e-02 0.0000000000000000e+00  -2.6476107574282672e-02 -3.1419127142826825e-02 0.0000000000000000e+00  -2.6980225420718280e-02 -3.2148967565191290e-02 0.0000000000000000e+00  -2.7487566511453027e-02 -3.2883404639560646e-02 0.0000000000000000e+00  -2.7998068363073673e-02 -3.3622342262384960e-02 0.0000000000000000e+00  -2.8511666910603216e-02 -3.4365685973097651e-02 0.0000000000000000e+00  -2.9028296549106863e-02 -3.5113342874580566e-02 0.0000000000000000e+00  -2.9547890176704516e-02 -3.5865221544715657e-02 0.0000000000000000e+00  -3.0070379240628851e-02 -3.6621231938157126e-02 0.0000000000000000e+00  -3.0595693788297882e-02 -3.7381285277420920e-02 0.0000000000000000e+00  -3.1123762525755560e-02 -3.8145293932375417e-02 0.0000000000000000e+00  -3.1654512886278234e-02 -3.8913171287235593e-02 0.0000000000000000e+00  -3.2187871112453706e-02 -3.9684831594227553e-02 0.0000000000000000e+00  -3.2723762355615929e-02 -4.0460189813213553e-02 0.0000000000000000e+00  -3.3262110797163284e-02 -4.1239161436768729e-02 0.0000000000000000e+00  -3.3802839797002743e-02 -4.2021662300504262e-02 0.0000000000000000e+00  -3.4345872075137375e-02 -4.2807608378861765e-02 0.0000000000000000e+00  -3.4891129933245016e-02 -4.3596915567201015e-02 0.0000000000000000e+00  -3.5438535523956691e-02 -4.4389499451803351e-02 0.0000000000000000e+00  -3.5988011176410165e-02 -4.5185275070475657e-02 0.0000000000000000e+00  -3.6539479787473982e-02 -4.5984156667819596e-02 0.0000000000000000e+00  -3.7092865288746169e-02 -4.6786057451011276e-02 0.0000000000000000e+00  -3.7648093199923079e-02 -4.7590889354201492e-02 0.0000000000000000e+00  -3.8205091279264747e-02 -4.8398562822505008e-02 0.0000000000000000e+00  -3.8763790281442362e-02 -4.9208986630118537e-02 0.0000000000000000e+00  -3.9324124831749324e-02 -5.0022067751523035e-02 0.0000000000000000e+00  -3.9886034423075950e-02 -5.0837711310123088e-02 0.0000000000000000e+00  -4.0449464537619099e-02 -5.1655820635177929e-02 0.0000000000000000e+00  -4.1014367888231838e-02 -5.2476297465560678e-02 0.0000000000000000e+00  -4.1580705763543988e-02 -5.3299042347721030e-02 0.0000000000000000e+00  -4.2148449445059209e-02 -5.4123955284993475e-02 0.0000000000000000e+00  -4.2717581641465996e-02 -5.4950936705505077e-02 0.0000000000000000e+00  -4.3288097852958750e-02 -5.5779888825188091e-02 0.0000000000000000e+00  -4.3860007533483458e-02 -5.6610717488591374e-02 0.0000000000000000e+00  -4.4433334858090624e-02 -5.7443334569502381e-02 0.0000000000000000e+00  -4.5008118822585548e-02 -5.8277660999626862e-02 0.0000000000000000e+00  -4.5584412300960032e-02 -5.9113630456972474e-02 0.0000000000000000e+00  -4.6162279563220429e-02 -5.9951193671569737e-02 0.0000000000000000e+00  -4.6741791619521945e-02 -6.0790323174065540e-02 0.0000000000000000e+00  -4.7323018626731286e-02 -6.1631018095380297e-02 0.0000000000000000e+00  -4.7906018515632379e-02 -6.2473308291432869e-02 0.0000000000000000e+00  -4.8490821056184727e-02 -6.3317256587676757e-02 0.0000000000000000e+00  -4.9077406920589428e-02 -6.4162957307984242e-02 0.0000000000000000e+00  -4.9665682155591945e-02 -6.5010528525946895e-02 0.0000000000000000e+00  -5.0255450142873442e-02 -6.5860094834978525e-02 0.0000000000000000e+00  -5.0846385945186694e-02 -6.6711757277152131e-02 0.0000000000000000e+00  -5.1438022146616927e-02 -6.7565548126666139e-02 0.0000000000000000e+00  -5.2029760747595868e-02 -6.8421371669111289e-02 0.0000000000000000e+00  -5.2620932154657428e-02 -6.9278939695706990e-02 0.0000000000000000e+00  -5.3210926955169768e-02 -7.0137726112232304e-02 0.0000000000000000e+00  -5.3799442905352816e-02 -7.0996996315834865e-02 0.0000000000000000e+00  -5.4386845905442807e-02 -7.1856068726314823e-02 0.0000000000000000e+00  0.0000000000000000e+00 0.0000000000000000e+00 0.0000000000000000e+00  -2.0959635802691659e-04 -1.0016557007223273e-04 0.0000000000000000e+00  -4.7274579757287661e-04 -1.9173959007774284e-04 0.0000000000000000e+00  -7.4136444661703719e-04 -2.5577768806836661e-04 0.0000000000000000e+00  -1.0097853834496774e-03 -3.1453974514156029e-04 0.0000000000000000e+00  -1.2779311397295835e-03 -3.7892626962604558e-04 0.0000000000000000e+00  -1.5466573482516024e-03 -4.5626068380500779e-04 0.0000000000000000e+00  -1.8168002649750850e-03 -5.5079634353450628e-04 0.0000000000000000e+00  -2.0889961059495517e-03 -6.6485510248980408e-04 0.0000000000000000e+00  -2.3636835474500602e-03 -7.9946484528539436e-04 0.0000000000000000e+00  -2.6411369709559746e-03 -9.5481787597439627e-04 0.0000000000000000e+00  -2.9215030374352257e-03 -1.1305837501743132e-03 0.0000000000000000e+00  -3.2048350545473901e-03 -1.3261268009234807e-03 0.0000000000000000e+00  -3.4911240988893810e-03 -1.5406546218859700e-03 0.0000000000000000e+00  -3.7803258701393427e-03 -1.7733165426119790e-03 0.0000000000000000e+00  -4.0723823767756214e-03 -2.0232658551898298e-03 0.0000000000000000e+00  -4.3672380605678249e-03 -2.2896963555017139e-03 0.0000000000000000e+00  -4.6648505920335488e-03 -2.5718612848956639e-03 0.0000000000000000e+00  -4.9651970541304009e-03 -2.8690807347444059e-03 0.0000000000000000e+00  -5.2682764833861841e-03 -3.1807419020096232e-03 0.0000000000000000e+00  -5.5741097776641803e-03 -3.5062952457131625e-03 0.0000000000000000e+00  -5.8827378774778567e-03 -3.8452485725944978e-03 0.0000000000000000e+00  -6.1942189557121679e-03 -4.1971603369903437e-03 0.0000000000000000e+00  -6.5086251633180176e-03 -4.5616329235816516e-03 0.0000000000000000e+00  -6.8260393085428578e-03 -4.9383063382689432e-03 0.0000000000000000e+00  -7.1465517090476662e-03 -5.3268525137558937e-03 0.0000000000000000e+00  -7.4702573525433462e-03 -5.7269703034050273e-03 0.0000000000000000e+00  -7.7972534287597184e-03 -6.1383811603355912e-03 0.0000000000000000e+00  -8.1276372475675967e-03 -6.5608254578991051e-03 0.0000000000000000e+00  -8.4615045285996917e-03 -6.9940593886595450e-03 0.0000000000000000e+00  -8.7989480312752437e-03 -7.4378523727853911e-03 0.0000000000000000e+00  -9.1400564864125098e-03 -7.8919849076623510e-03 0.0000000000000000e+00  -9.4849137884386141e-03 -8.3562467951132351e-03 0.0000000000000000e+00  -9.8335984083571699e-03 -8.8304356888350612e-03 0.0000000000000000e+00  -1.0186182990619016e-02 -9.3143559113781620e-03 0.0000000000000000e+00  -1.0542734100897549e-02 -9.8078174965707046e-03 0.0000000000000000e+00  -1.0903312095899705e-02 -1.0310635419418932e-02 0.0000000000000000e+00  -1.1267971090393522e-02 -1.0822628981050027e-02 0.0000000000000000e+00  -1.1636759000409804e-02 -1.1343621321172746e-02 0.0000000000000000e+00  -1.2009717644984911e-02 -1.1873439034825461e-02 0.0000000000000000e+00  -1.2386882891822139e-02 -1.2411911873903078e-02 0.0000000000000000e+00  -1.2768284834864113e-02 -1.2958872517156429e-02 0.0000000000000000e+00  -1.3153947994011657e-02 -1.3514156395096179e-02 0.0000000000000000e+00  -1.3543891529129031e-02 -1.4077601558563005e-02 0.0000000000000000e+00  -1.3938129462078189e-02 -1.4649048581698510e-02 0.0000000000000000e+00  -1.4336670901862724e-02 -1.5228340491714254e-02 0.0000000000000000e+00  -1.4739520269070815e-02 -1.5815322719251783e-02 0.0000000000000000e+00  -1.5146677516717902e-02 -1.6409843064292939e-02 0.0000000000000000e+00  -1.5558138345333226e-02 -1.7011751673549829e-02 0.0000000000000000e+00  -1.5973894410735368e-02 -1.7620901026067486e-02 0.0000000000000000e+00  -1.6393933523423110e-02 -1.8237145924434397e-02 0.0000000000000000e+00  -1.6818239838889006e-02 -1.8860343489539032e-02 0.0000000000000000e+00  -1.7246794038460651e-02 -1.9490353157253087e-02 0.0000000000000000e+00  -1.7679573500503497e-02 -2.0127036675780419e-02 0.0000000000000000e+00  -1.8116552461991463e-02 -2.0770258102698703e-02 0.0000000000000000e+00  -1.8557702170578019e-02 -2.1419883800949807e-02 0.0000000000000000e+00  -1.9002991027390077e-02 -2.2075782433215195e-02 0.0000000000000000e+00  -1.9452384720827071e-02 -2.2737824954251973e-02 0.0000000000000000e+00  -1.9905846351684867e-02 -2.3405884600870709e-02 0.0000000000000000e+00  -2.0363336549943788e-02 -2.4079836879313365e-02 0.0000000000000000e+00  -2.0824813583566859e-02 -2.4759559549843452e-02 0.0000000000000000e+00  -2.1290233459652207e-02 -2.5444932608394377e-02 0.0000000000000000e+00  -2.1759550018275703e-02 -2.6135838265139356e-02 0.0000000000000000e+00  -2.2232715019350063e-02 -2.6832160919849784e-02 0.0000000000000000e+00  -2.2709678222816439e-02 -2.7533787133900145e-02 0.0000000000000000e+00  -2.3190387462477487e-02 -2.8240605598759284e-02 0.0000000000000000e+00  -2.3674788713778948e-02 -2.8952507100779897e-02 0.0000000000000000e+00  -2.4162826155852472e-02 -2.9669384482063861e-02 0.0000000000000000e+00  -2.4654442228148207e-02 -3.0391132597139513e-02 0.0000000000000000e+00  -2.5149577682014024e-02 -3.1117648265140865e-02 0.0000000000000000e+00  -2.5648171627622625e-02 -3.1848830217129066e-02 0.0000000000000000e+00  -2.6150161576709761e-02 -3.2584579038142852e-02 0.0000000000000000e+00  -2.6655483481672203e-02 -3.3324797103512604e-02 0.0000000000000000e+00  -2.7164071771683451e-02 -3.4069388508918615e-02 0.0000000000000000e+00  -2.7675859386626429e-02 -3.4818258993626942e-02 0.0000000000000000e+00  -2.8190777809816235e-02 -3.5571315856292973e-02 0.0000000000000000e+00  -2.8708757100700890e-02 -3.6328467862692310e-02 0.0000000000000000e+00  -2.9229725928987010e-02 -3.7089625144722679e-02 0.0000000000000000e+00  -2.9753611611947159e-02 -3.7854699090027345e-02 0.0000000000000000e+00  -3.0280340157032862e-02 -3.8623602221626842e-02 0.0000000000000000e+00  -3.0809836312346562e-02 -3.9396248067021911e-02 0.0000000000000000e+00  -3.1342023628025198e-02 -4.0172551016358533e-02 0.0000000000000000e+00  -3.1876824532161431e-02 -4.0952426169440358e-02 0.0000000000000000e+00  -3.2414160425541481e-02 -4.1735789171652438e-02 0.0000000000000000e+00  -3.2953951800214439e-02 -4.2522556039247164e-02 0.0000000000000000e+00  -3.3496118387725489e-02 -4.3312642974961096e-02 0.0000000000000000e+00  -3.4040579343744222e-02 -4.4105966175618017e-02 0.0000000000000000e+00  -3.4587253476786622e-02 -4.4902441634260916e-02 0.0000000000000000e+00  -3.5136059529751407e-02 -4.5701984940495030e-02 0.0000000000000000e+00  -3.5686916524035370e-02 -4.6504511084162661e-02 0.0000000000000000e+00  -3.6239744177015254e-02 -4.7309934269273490e-02 0.0000000000000000e+00  -3.6794463404611774e-02 -4.8118167747344336e-02 0.0000000000000000e+00  -3.7350996921381829e-02 -4.8929123682033136e-02 0.0000000000000000e+00  -3.7909269950962478e-02 -4.9742713060252727e-02 0.0000000000000000e+00  -3.8469211059490256e-02 -5.0558845668878735e-02 0.0000000000000000e+00  -3.9030753123520348e-02 -5.1377430160753829e-02 0.0000000000000000e+00  -3.9593834441505556e-02 -5.2198374238908662e-02 0.0000000000000000e+00  -4.0158399993404488e-02 -5.3021584993635601e-02 0.0000000000000000e+00  -4.0724402845530590e-02 -5.3846969432951933e-02 0.0000000000000000e+00  -4.1291805686003415e-02 -5.4674435252469941e-02 0.0000000000000000e+00  -4.1860582458274440e-02 -5.5503891894692035e-02 0.0000000000000000e+00  -4.2430720033628022e-02 -5.6335251948514090e-02 0.0000000000000000e+00  -4.3002219824887285e-02 -5.7168432934494334e-02 0.0000000000000000e+00  -4.3575099188315730e-02 -5.8003359506057381e-02 0.0000000000000000e+00  -4.4149392383370373e-02 -5.8839966065241972e-02 0.0000000000000000e+00  -4.4725150754249390e-02 -5.9678199735582416e-02 0.0000000000000000e+00  -4.5302441657217973e-02 -6.0518023543558147e-02 0.0000000000000000e+00  -4.5881345480805906e-02 -6.1359419521152467e-02 0.0000000000000000e+00  -4.6461949898558064e-02 -6.2202391242768912e-02 0.0000000000000000e+00  -4.7044340282807483e-02 -6.3046965041563319e-02 0.0000000000000000e+00  -4.7628585059518738e-02 -6.3893188817122970e-02 0.0000000000000000e+00  -4.8214714835424333e-02 -6.4741126979606420e-02 0.0000000000000000e+00  -4.8802694625869399e-02 -6.5590849758949687e-02 0.0000000000000000e+00  -4.9392389845381218e-02 -6.6442415021593940e-02 0.0000000000000000e+00  -4.9983529412663652e-02 -6.7295841229771627e-02 0.0000000000000000e+00  -5.0575673887695315e-02 -6.8151071855171427e-02 0.0000000000000000e+00  -5.1168203305144530e-02 -6.9007935371053500e-02 0.0000000000000000e+00  -5.1760347876467119e-02 -6.9866111955635440e-02 0.0000000000000000e+00  -5.2351296465601910e-02 -7.0725128697062253e-02 0.0000000000000000e+00  -5.2940429194472907e-02 -7.1584411428501013e-02 0.0000000000000000e+00  -5.3527806963509672e-02 -7.2443399959453619e-02 0.0000000000000000e+00  0.0000000000000000e+00 0.0000000000000000e+00 0.0000000000000000e+00  -1.9167524107079113e-04 -2.3241548582453711e-05 0.0000000000000000e+00  -4.1441135296052555e-04 -7.0974016166966557e-05 0.0000000000000000e+00  -6.5634314013787167e-04 -1.2557976715212209e-04 0.0000000000000000e+00  -9.0382935341766404e-04 -1.8315851711966788e-04 0.0000000000000000e+00  -1.1525702477357309e-03 -2.5023352100459725e-04 0.0000000000000000e+00  -1.4014393173037564e-03 -3.3175507047175385e-04 0.0000000000000000e+00  -1.6506102086586063e-03 -4.3129916465698407e-04 0.0000000000000000e+00  -1.9006999313031371e-03 -5.5098437971855382e-04 0.0000000000000000e+00  -2.1524103379049818e-03 -6.9182431795961541e-04 0.0000000000000000e+00  -2.4063743955833805e-03 -8.5403411670187477e-04 0.0000000000000000e+00  -2.6630990801912685e-03 -1.0372925371601133e-03 0.0000000000000000e+00  -2.9229551854897591e-03 -1.2409441143622065e-03 0.0000000000000000e+00  -3.1861903523824797e-03 -1.4641491269371666e-03 0.0000000000000000e+00  -3.4529524031193179e-03 -1.7059897236373497e-03 0.0000000000000000e+00  -3.7233154771943527e-03 -1.9655411675078231e-03 0.0000000000000000e+00  -3.9973046099970669e-03 -2.2419163889587424e-03 0.0000000000000000e+00  -4.2749164849243725e-03 -2.5342909937520882e-03 0.0000000000000000e+00  -4.5561355083797933e-03 -2.8419146298027487e-03 0.0000000000000000e+00  -4.8409452669322742e-03 -3.1641133541232226e-03 0.0000000000000000e+00  -5.1293359373743340e-03 -3.5002864715768006e-03 0.0000000000000000e+00  -5.4213084401940233e-03 -3.8499003170287646e-03 0.0000000000000000e+00  -5.7168761546759605e-03 -4.2124806527136429e-03 0.0000000000000000e+00  -6.0160649322062373e-03 -4.5876047492008527e-03 0.0000000000000000e+00  -6.3189120139455560e-03 -4.9748937861080608e-03 0.0000000000000000e+00  -6.6254643189250810e-03 -5.3740059138304395e-03 0.0000000000000000e+00  -6.9357764405324780e-03 -5.7846301259693736e-03 0.0000000000000000e+00  -7.2499085828442653e-03 -6.2064809742228069e-03 0.0000000000000000e+00  -7.5679245853675064e-03 -6.6392940897326636e-03 0.0000000000000000e+00  -7.8898901235222984e-03 -7.0828224398259768e-03 0.0000000000000000e+00  -8.2158711289898566e-03 -7.5368332344432814e-03 0.0000000000000000e+00  -8.5459324449084217e-03 -8.0011053940245453e-03 0.0000000000000000e+00  -8.8801367122191971e-03 -8.4754274948305210e-03 0.0000000000000000e+00  -9.2185434722719065e-03 -8.9595961152397138e-03 0.0000000000000000e+00  -9.5612084647822126e-03 -9